
     Program PWSCF v.6.7MaX starts on 23Apr2023 at  7:40:28 

     This program is part of the open-source Quantum ESPRESSO suite
     for quantum simulation of materials; please cite
         "P. Giannozzi et al., J. Phys.:Condens. Matter 21 395502 (2009);
         "P. Giannozzi et al., J. Phys.:Condens. Matter 29 465901 (2017);
          URL http://www.quantum-espresso.org", 
     in publications or presentations arising from this work. More details at
     http://www.quantum-espresso.org/quote

     Parallel version (MPI), running on     1 processors

     MPI processes distributed on     1 nodes
     Reading input from espresso.pwi
Warning: card &CELL ignored
Warning: card / ignored

     Current dimensions of program PWSCF are:
     Max number of different atomic species (ntypx) = 10
     Max number of k-points (npk) =  40000
     Max angular momentum in pseudopotentials (lmaxx) =  3

     IMPORTANT: XC functional enforced from input :
     Exchange-correlation= PBE
                           (   1   4   3   4   0   0   0)
     Any further DFT definition will be discarded
     Please, verify this is what you really want


     --------------------------------------------
     Parameters for DFT-D3 Dispersion Correction:
     --------------------------------------------
       Reference C6 values for interpolation: 

         atom   Coordination number   C6
         C          0.000            98.23
         C          0.987            86.49
         C          1.998            58.72
         C          2.999            51.56
         C          3.984            36.41

       Values used:

         atom   Coordination number  R0_AB[au]  C6      C8
         C          3.151            2.750     50.53   1461.35
         C          3.151            2.750     50.53   1461.35

         Molecular C6 ( Ry / a.u.^6 ) =       202.11


     Subspace diagonalization in iterative solution of the eigenvalue problem:
     a serial algorithm will be used

     Message from routine setup:
     using ibrav=0 with symmetry is DISCOURAGED, use correct ibrav instead

     G-vector sticks info
     --------------------
     sticks:   dense  smooth     PW     G-vecs:    dense   smooth      PW
     Sum         673     265     85                53317    13409    2515



     bravais-lattice index     =            0
     lattice parameter (alat)  =       4.9133  a.u.
     unit-cell volume          =     395.0699 (a.u.)^3
     number of atoms/cell      =            2
     number of atomic types    =            1
     number of electrons       =         8.00
     number of Kohn-Sham states=            8
     kinetic-energy cutoff     =      40.0000  Ry
     charge density cutoff     =     400.0000  Ry
     scf convergence threshold =      1.0E-06
     mixing beta               =       0.7000
     number of iterations used =            8  plain     mixing
     Exchange-correlation= PBE
                           (   1   4   3   4   0   0   0)

     celldm(1)=   4.913288  celldm(2)=   0.000000  celldm(3)=   0.000000
     celldm(4)=   0.000000  celldm(5)=   0.000000  celldm(6)=   0.000000

     crystal axes: (cart. coord. in units of alat)
               a(1) = (   1.000000   0.000000   0.000000 )  
               a(2) = (  -0.500000   0.866025   0.000000 )  
               a(3) = (   0.000000   0.000000   3.846154 )  

     reciprocal axes: (cart. coord. in units 2 pi/alat)
               b(1) = (  1.000000  0.577350 -0.000000 )  
               b(2) = (  0.000000  1.154701  0.000000 )  
               b(3) = (  0.000000 -0.000000  0.260000 )  


     PseudoPot. # 1 for C  read from file:
     /home/max/Documents/TestQE/all_pbe_UPF_v1.5/c_pbe_v1.2.uspp.F.UPF
     MD5 check sum: d1aef80898a10debaa0f26306b886e00
     Pseudo is Ultrasoft + core correction, Zval =  4.0
     Generated by new atomic code, or converted to UPF format
     Using radial grid of  721 points,  4 beta functions with: 
                l(1) =   0
                l(2) =   0
                l(3) =   1
                l(4) =   1
     Q(r) pseudized with  8 coefficients,  rinner =    1.100   1.100   1.100


     atomic species   valence    mass     pseudopotential
        C              4.00    12.01100     C ( 1.00)

     24 Sym. Ops., with inversion, found (12 have fractional translation)



   Cartesian axes

     site n.     atom                  positions (alat units)
         1           C   tau(   1) = (   0.0000000   0.0000000   0.0000000  )
         2           C   tau(   2) = (   0.0000000   0.5773503   0.0000000  )

     number of k points=    19  Gaussian smearing, width (Ry)=  0.0200
                       cart. coord. in units 2pi/alat
        k(    1) = (   0.0000000   0.0000000   0.0000000), wk =   0.0138889
        k(    2) = (   0.0000000   0.0962250   0.0000000), wk =   0.0833333
        k(    3) = (   0.0000000   0.1924501   0.0000000), wk =   0.0833333
        k(    4) = (   0.0000000   0.2886751   0.0000000), wk =   0.0833333
        k(    5) = (   0.0000000   0.3849002   0.0000000), wk =   0.0833333
        k(    6) = (   0.0000000   0.4811252   0.0000000), wk =   0.0833333
        k(    7) = (   0.0000000  -0.5773503   0.0000000), wk =   0.0416667
        k(    8) = (   0.0833333   0.1443376   0.0000000), wk =   0.0833333
        k(    9) = (   0.0833333   0.2405626   0.0000000), wk =   0.1666667
        k(   10) = (   0.0833333   0.3367877   0.0000000), wk =   0.1666667
        k(   11) = (   0.0833333   0.4330127   0.0000000), wk =   0.1666667
        k(   12) = (   0.0833333   0.5292377   0.0000000), wk =   0.1666667
        k(   13) = (   0.1666667   0.2886751   0.0000000), wk =   0.0833333
        k(   14) = (   0.1666667   0.3849002   0.0000000), wk =   0.1666667
        k(   15) = (   0.1666667   0.4811252   0.0000000), wk =   0.1666667
        k(   16) = (   0.1666667   0.5773503   0.0000000), wk =   0.0833333
        k(   17) = (   0.2500000   0.4330127   0.0000000), wk =   0.0833333
        k(   18) = (   0.2500000   0.5292377   0.0000000), wk =   0.1666667
        k(   19) = (   0.3333333   0.5773503   0.0000000), wk =   0.0277778

     Dense  grid:    53317 G-vectors     FFT dimensions: (  36,  36, 125)

     Smooth grid:    13409 G-vectors     FFT dimensions: (  24,  24,  80)

     Estimated max dynamical RAM per process >      78.66 MB

     Initial potential from superposition of free atoms

     starting charge    7.99992, renormalised to    8.00000

     negative rho (up, down):  1.650E-08 0.000E+00
     Starting wfcs are    8 randomized atomic wfcs

     total cpu time spent up to now is        0.4 secs

     Self-consistent Calculation

     iteration #  1     ecut=    40.00 Ry     beta= 0.70
     Davidson diagonalization with overlap
     ethr =  1.00E-02,  avg # of iterations =  5.5

     negative rho (up, down):  2.796E-05 0.000E+00

     total cpu time spent up to now is        1.0 secs

     total energy              =     -22.94408215 Ry
     estimated scf accuracy    <       0.12247008 Ry

     iteration #  2     ecut=    40.00 Ry     beta= 0.70
     Davidson diagonalization with overlap
     ethr =  1.53E-03,  avg # of iterations =  4.2

     negative rho (up, down):  5.429E-05 0.000E+00

     total cpu time spent up to now is        1.4 secs

     total energy              =     -22.96011658 Ry
     estimated scf accuracy    <       0.00198029 Ry

     iteration #  3     ecut=    40.00 Ry     beta= 0.70
     Davidson diagonalization with overlap
     ethr =  2.48E-05,  avg # of iterations =  7.4

     negative rho (up, down):  6.603E-05 0.000E+00

     total cpu time spent up to now is        2.0 secs

     total energy              =     -22.96027596 Ry
     estimated scf accuracy    <       0.00012668 Ry

     iteration #  4     ecut=    40.00 Ry     beta= 0.70
     Davidson diagonalization with overlap
     ethr =  1.58E-06,  avg # of iterations =  3.8

     negative rho (up, down):  6.916E-05 0.000E+00

     total cpu time spent up to now is        2.3 secs

     End of self-consistent calculation

          k = 0.0000 0.0000 0.0000 (  1647 PWs)   bands (ev):

   -19.4023  -7.7424  -4.2096  -4.2096   2.4008   4.0070   5.1407   6.1910

          k = 0.0000 0.0962 0.0000 (  1655 PWs)   bands (ev):

   -19.2535  -7.5707  -4.8286  -4.4955   2.6024   4.2045   5.3386   6.2116

          k = 0.0000 0.1925 0.0000 (  1685 PWs)   bands (ev):

   -18.8092  -7.0607  -6.3631  -5.1713   3.2069   4.7935   5.8824   6.0292

          k = 0.0000 0.2887 0.0000 (  1685 PWs)   bands (ev):

   -18.0756  -8.2995  -6.2312  -5.9290   4.2121   5.0599   5.5380   5.8113

          k = 0.0000 0.3849 0.0000 (  1682 PWs)   bands (ev):

   -17.0678 -10.3101  -6.5650  -5.1306   3.1552   5.1275   5.6242   7.1517

          k = 0.0000 0.4811 0.0000 (  1692 PWs)   bands (ev):

   -15.8320 -12.1940  -6.9766  -3.9101   1.3650   4.8604   7.4114   8.8589

          k = 0.0000-0.5774 0.0000 (  1696 PWs)   bands (ev):

   -14.8412 -13.4076  -7.1181  -3.2017   0.4535   4.7661   9.4879   9.6334

          k = 0.0833 0.1443 0.0000 (  1683 PWs)   bands (ev):

   -18.9570  -7.2298  -5.8132  -5.0705   3.0055   4.5984   5.7338   6.5002

          k = 0.0833 0.2406 0.0000 (  1678 PWs)   bands (ev):

   -18.3679  -7.4087  -6.5588  -5.9326   3.8109   5.3700   5.7844   6.3598

          k = 0.0833 0.3368 0.0000 (  1676 PWs)   bands (ev):

   -17.4964  -9.3056  -6.7123  -5.5877   3.9873   5.0144   5.9871   6.5548

          k = 0.0833 0.4330 0.0000 (  1687 PWs)   bands (ev):

   -16.3673 -11.2256  -7.2738  -4.3960   2.1396   5.6396   6.6182   8.0738

          k = 0.0833 0.5292 0.0000 (  1695 PWs)   bands (ev):

   -15.0989 -12.9163  -7.5648  -3.2837   0.6617   5.4547   8.5858   9.8484

          k = 0.1667 0.2887 0.0000 (  1679 PWs)   bands (ev):

   -17.6405  -8.6868  -7.1013  -5.7425   4.3358   4.8152   6.3399   7.4693

          k = 0.1667 0.3849 0.0000 (  1687 PWs)   bands (ev):

   -16.6434 -10.2644  -8.0455  -4.6562   2.6944   6.2132   7.4883   7.6393

          k = 0.1667 0.4811 0.0000 (  1697 PWs)   bands (ev):

   -15.4244 -11.9560  -8.5825  -3.4307   1.0831   7.2073   7.9972   9.1407

          k = 0.1667 0.5774 0.0000 (  1693 PWs)   bands (ev):

   -14.4414 -13.1158  -8.7557  -2.6782   0.1919   7.1118   9.9655  10.1769

          k = 0.2500 0.4330 0.0000 (  1697 PWs)   bands (ev):

   -15.5464 -11.2957  -9.2949  -3.4973   1.3007   7.7890   8.8595   9.3171

          k = 0.2500 0.5292 0.0000 (  1711 PWs)   bands (ev):

   -14.3139 -12.5372  -9.9334  -2.3114  -0.0004   9.1840   9.4699   9.6857

          k = 0.3333 0.5774 0.0000 (  1713 PWs)   bands (ev):

   -13.2491 -13.2491 -10.5841  -1.1389  -1.1389   9.2670  10.4280  10.4280

     the Fermi energy is    -1.1389 ev

!    total energy              =     -22.96028329 Ry
     estimated scf accuracy    <       0.00000049 Ry
     smearing contrib. (-TS)   =      -0.00031344 Ry
     internal energy E=F+TS    =     -22.95996985 Ry

     The total energy is F=E-TS. E is the sum of the following terms:
     one-electron contribution =     -81.21487308 Ry
     hartree contribution      =      42.21075189 Ry
     xc contribution           =      -7.04511855 Ry
     ewald contribution        =      23.09422381 Ry
     DFT-D3 Dispersion         =      -0.00495393 Ry

     convergence has been achieved in   4 iterations

     negative rho (up, down):  6.916E-05 0.000E+00

     Forces acting on atoms (cartesian axes, Ry/au):

     atom    1 type  1   force =     0.00000000   -0.00000000    0.00000000
     atom    2 type  1   force =     0.00000000    0.00000000    0.00000000

     Total force =     0.000000     Total SCF correction =     0.000000


     Computing stress (Cartesian axis) and pressure


     negative rho (up, down):  6.916E-05 0.000E+00
          total   stress  (Ry/bohr**3)                   (kbar)     P=     -116.36
  -0.00118501   0.00000000  -0.00000000         -174.32        0.00       -0.00
   0.00000000  -0.00118501  -0.00000000            0.00     -174.32       -0.00
   0.00000000   0.00000000  -0.00000292            0.00        0.00       -0.43


     Writing output data file ./pwscf.save/

     init_run     :      0.31s CPU      0.35s WALL (       1 calls)
     electrons    :      1.84s CPU      1.97s WALL (       1 calls)
     forces       :      0.29s CPU      0.31s WALL (       1 calls)
     stress       :      0.50s CPU      0.54s WALL (       1 calls)

     Called by init_run:
     wfcinit      :      0.09s CPU      0.10s WALL (       1 calls)
     potinit      :      0.08s CPU      0.09s WALL (       1 calls)
     hinit0       :      0.11s CPU      0.12s WALL (       1 calls)

     Called by electrons:
     c_bands      :      1.09s CPU      1.17s WALL (       4 calls)
     sum_band     :      0.28s CPU      0.30s WALL (       4 calls)
     v_of_rho     :      0.28s CPU      0.31s WALL (       5 calls)
     newd         :      0.09s CPU      0.10s WALL (       5 calls)
     mix_rho      :      0.01s CPU      0.01s WALL (       4 calls)

     Called by c_bands:
     init_us_2    :      0.04s CPU      0.04s WALL (     209 calls)
     cegterg      :      1.06s CPU      1.13s WALL (      76 calls)

     Called by *egterg:
     cdiaghg      :      0.02s CPU      0.02s WALL (     472 calls)
     h_psi        :      0.93s CPU      1.00s WALL (     491 calls)
     s_psi        :      0.03s CPU      0.03s WALL (     491 calls)
     g_psi        :      0.00s CPU      0.00s WALL (     396 calls)

     Called by h_psi:
     h_psi:calbec :      0.03s CPU      0.04s WALL (     491 calls)
     vloc_psi     :      0.86s CPU      0.93s WALL (     491 calls)
     add_vuspsi   :      0.03s CPU      0.03s WALL (     491 calls)

     General routines
     calbec       :      0.06s CPU      0.06s WALL (     662 calls)
     fft          :      0.12s CPU      0.13s WALL (      88 calls)
     ffts         :      0.01s CPU      0.01s WALL (       9 calls)
     fftw         :      0.90s CPU      0.97s WALL (    4710 calls)
     interpolate  :      0.01s CPU      0.01s WALL (       5 calls)

     Parallel routines

     PWSCF        :      2.96s CPU      3.21s WALL


   This run was terminated on:   7:40:31  23Apr2023            

=------------------------------------------------------------------------------=
   JOB DONE.
=------------------------------------------------------------------------------=
