
     Program PWSCF v.6.7MaX starts on 10Mar2023 at  2:31:10 

     This program is part of the open-source Quantum ESPRESSO suite
     for quantum simulation of materials; please cite
         "P. Giannozzi et al., J. Phys.:Condens. Matter 21 395502 (2009);
         "P. Giannozzi et al., J. Phys.:Condens. Matter 29 465901 (2017);
          URL http://www.quantum-espresso.org", 
     in publications or presentations arising from this work. More details at
     http://www.quantum-espresso.org/quote

     Parallel version (MPI), running on     1 processors

     MPI processes distributed on     1 nodes
     Reading input from h20.in

     Current dimensions of program PWSCF are:
     Max number of different atomic species (ntypx) = 10
     Max number of k-points (npk) =  40000
     Max angular momentum in pseudopotentials (lmaxx) =  3

     Subspace diagonalization in iterative solution of the eigenvalue problem:
     a serial algorithm will be used


     G-vector sticks info
     --------------------
     sticks:   dense  smooth     PW     G-vecs:    dense   smooth      PW
     Sum        1789    1789    437                57051    57051    7123



     bravais-lattice index     =            1
     lattice parameter (alat)  =      15.0000  a.u.
     unit-cell volume          =    3375.0000 (a.u.)^3
     number of atoms/cell      =            3
     number of atomic types    =            2
     number of electrons       =         8.00
     number of Kohn-Sham states=            4
     kinetic-energy cutoff     =      25.0000  Ry
     charge density cutoff     =     100.0000  Ry
     scf convergence threshold =      1.0E-08
     mixing beta               =       0.7000
     number of iterations used =            8  plain     mixing
     energy convergence thresh.=      1.0E-05
     force convergence thresh. =      1.0E-04
     Exchange-correlation= SLA  PW   PBE  PBE
                           (   1   4   3   4   0   0   0)
     nstep                     =           50


     celldm(1)=  15.000000  celldm(2)=   0.000000  celldm(3)=   0.000000
     celldm(4)=   0.000000  celldm(5)=   0.000000  celldm(6)=   0.000000

     crystal axes: (cart. coord. in units of alat)
               a(1) = (   1.000000   0.000000   0.000000 )  
               a(2) = (   0.000000   1.000000   0.000000 )  
               a(3) = (   0.000000   0.000000   1.000000 )  

     reciprocal axes: (cart. coord. in units 2 pi/alat)
               b(1) = (  1.000000  0.000000  0.000000 )  
               b(2) = (  0.000000  1.000000  0.000000 )  
               b(3) = (  0.000000  0.000000  1.000000 )  


     PseudoPot. # 1 for H  read from file:
     /home/max/Documents/TestQE/all_pbe_UPF_v1.5/h_pbe_v1.4.uspp.F.UPF
     MD5 check sum: 761ae9a214b05c3daf00ab9f6b793d6f
     Pseudo is Ultrasoft, Zval =  1.0
     Generated by new atomic code, or converted to UPF format
     Using radial grid of  615 points,  2 beta functions with: 
                l(1) =   0
                l(2) =   0
     Q(r) pseudized with  8 coefficients,  rinner =    0.700

     PseudoPot. # 2 for O  read from file:
     /home/max/Documents/TestQE/all_pbe_UPF_v1.5/o_pbe_v1.2.uspp.F.UPF
     MD5 check sum: 734c27235a0248c51dbae37a1fbe46ec
     Pseudo is Ultrasoft + core correction, Zval =  6.0
     Generated by new atomic code, or converted to UPF format
     Using radial grid of  737 points,  5 beta functions with: 
                l(1) =   0
                l(2) =   0
                l(3) =   1
                l(4) =   1
                l(5) =   2
     Q(r) pseudized with  8 coefficients,  rinner =    0.900   0.900   0.900
                                                       0.900   0.900

     atomic species   valence    mass     pseudopotential
        H              1.00     1.00784     H ( 1.00)
        O              6.00    15.99900     O ( 1.00)

     No symmetry found



   Cartesian axes

     site n.     atom                  positions (alat units)
         1           O   tau(   1) = (   0.0000000   0.0000000   0.0000000  )
         2           H   tau(   2) = (  -0.1259817   0.0012598   0.0025196  )
         3           H   tau(   3) = (   0.1259817   0.0012598   0.0037795  )

     number of k points=     1
                       cart. coord. in units 2pi/alat
        k(    1) = (   0.0000000   0.0000000   0.0000000), wk =   2.0000000

     Dense  grid:    57051 G-vectors     FFT dimensions: (  48,  48,  48)

     Estimated max dynamical RAM per process >     132.69 MB

     Check: negative core charge=   -0.000020

     Initial potential from superposition of free atoms

     starting charge    7.99998, renormalised to    8.00000

     negative rho (up, down):  2.628E-02 0.000E+00
     Starting wfcs are    6 randomized atomic wfcs

     total cpu time spent up to now is        0.6 secs

     Self-consistent Calculation

     iteration #  1     ecut=    25.00 Ry     beta= 0.70
     Davidson diagonalization with overlap
     ethr =  1.00E-02,  avg # of iterations =  2.0

     negative rho (up, down):  3.255E-02 0.000E+00

     total cpu time spent up to now is        1.1 secs

     total energy              =     -34.30492271 Ry
     estimated scf accuracy    <       0.48534743 Ry

     iteration #  2     ecut=    25.00 Ry     beta= 0.70
     Davidson diagonalization with overlap
     ethr =  6.07E-03,  avg # of iterations =  2.0

     negative rho (up, down):  3.026E-02 0.000E+00

     total cpu time spent up to now is        1.4 secs

     total energy              =     -34.43362613 Ry
     estimated scf accuracy    <       0.41341054 Ry

     iteration #  3     ecut=    25.00 Ry     beta= 0.70
     Davidson diagonalization with overlap
     ethr =  5.17E-03,  avg # of iterations =  2.0

     negative rho (up, down):  3.584E-02 0.000E+00

     total cpu time spent up to now is        1.9 secs

     total energy              =     -34.50546368 Ry
     estimated scf accuracy    <       0.00295153 Ry

     iteration #  4     ecut=    25.00 Ry     beta= 0.70
     Davidson diagonalization with overlap
     ethr =  3.69E-05,  avg # of iterations =  2.0

     negative rho (up, down):  3.590E-02 0.000E+00

     total cpu time spent up to now is        2.3 secs

     total energy              =     -34.50577099 Ry
     estimated scf accuracy    <       0.00083748 Ry

     iteration #  5     ecut=    25.00 Ry     beta= 0.70
     Davidson diagonalization with overlap
     ethr =  1.05E-05,  avg # of iterations =  2.0

     negative rho (up, down):  3.610E-02 0.000E+00

     total cpu time spent up to now is        2.7 secs

     total energy              =     -34.50583746 Ry
     estimated scf accuracy    <       0.00004162 Ry

     iteration #  6     ecut=    25.00 Ry     beta= 0.70
     Davidson diagonalization with overlap
     ethr =  5.20E-07,  avg # of iterations =  2.0

     negative rho (up, down):  3.605E-02 0.000E+00

     total cpu time spent up to now is        3.1 secs

     total energy              =     -34.50585202 Ry
     estimated scf accuracy    <       0.00000252 Ry

     iteration #  7     ecut=    25.00 Ry     beta= 0.70
     Davidson diagonalization with overlap
     ethr =  3.15E-08,  avg # of iterations =  1.0

     negative rho (up, down):  3.603E-02 0.000E+00

     total cpu time spent up to now is        3.4 secs

     total energy              =     -34.50585158 Ry
     estimated scf accuracy    <       0.00000107 Ry

     iteration #  8     ecut=    25.00 Ry     beta= 0.70
     Davidson diagonalization with overlap
     ethr =  1.34E-08,  avg # of iterations =  2.0

     negative rho (up, down):  3.602E-02 0.000E+00

     total cpu time spent up to now is        3.8 secs

     End of self-consistent calculation

          k = 0.0000 0.0000 0.0000 (  7123 PWs)   bands (ev):

   -23.9487 -14.2567  -6.5943  -6.5900

     highest occupied level (ev):    -6.5900

!    total energy              =     -34.50585184 Ry
     estimated scf accuracy    <          5.3E-09 Ry

     The total energy is the sum of the following terms:
     one-electron contribution =     -57.52097538 Ry
     hartree contribution      =      30.42692114 Ry
     xc contribution           =      -8.60456434 Ry
     ewald contribution        =       1.19276674 Ry

     convergence has been achieved in   8 iterations

     negative rho (up, down):  3.602E-02 0.000E+00

     Forces acting on atoms (cartesian axes, Ry/au):

     atom    1 type  2   force =     0.00048274   -0.00446388   -0.01115447
     atom    2 type  1   force =     0.09407465    0.00223511    0.00603912
     atom    3 type  1   force =    -0.09455739    0.00222876    0.00511535

     Total force =     0.134195     Total SCF correction =     0.000017

     BFGS Geometry Optimization
     Energy error            =      0.0E+00
     Gradient error          =      9.5E-02

     number of scf cycles    =   1
     number of bfgs steps    =   0

     energy   new            =     -34.5058518391 Ry

     new trust radius        =       0.0947218789 bohr
     new conv_thr            =       0.0000000100 Ry


ATOMIC_POSITIONS (angstrom)
O             0.0002554538       -0.0023621818       -0.0059026921
H            -0.9502178375        0.0111827707        0.0231957661
H             0.9499623836        0.0111794111        0.0327069260



     Writing output data file ./h2o.save/
     NEW-OLD atomic charge density approx. for the potential

     Check: negative core charge=   -0.000020

     negative rho (up, down):  3.733E-02 0.000E+00

     total cpu time spent up to now is        4.3 secs

     Self-consistent Calculation

     iteration #  1     ecut=    25.00 Ry     beta= 0.70
     Davidson diagonalization with overlap
     ethr =  1.00E-06,  avg # of iterations =  5.0

     negative rho (up, down):  3.524E-02 0.000E+00

     total cpu time spent up to now is        4.7 secs

     total energy              =     -34.51429758 Ry
     estimated scf accuracy    <       0.00334203 Ry

     iteration #  2     ecut=    25.00 Ry     beta= 0.70
     Davidson diagonalization with overlap
     ethr =  4.18E-05,  avg # of iterations =  2.0

     negative rho (up, down):  3.441E-02 0.000E+00

     total cpu time spent up to now is        5.0 secs

     total energy              =     -34.51504923 Ry
     estimated scf accuracy    <       0.00215479 Ry

     iteration #  3     ecut=    25.00 Ry     beta= 0.70
     Davidson diagonalization with overlap
     ethr =  2.69E-05,  avg # of iterations =  2.0

     negative rho (up, down):  3.384E-02 0.000E+00

     total cpu time spent up to now is        5.4 secs

     total energy              =     -34.51546390 Ry
     estimated scf accuracy    <       0.00001797 Ry

     iteration #  4     ecut=    25.00 Ry     beta= 0.70
     Davidson diagonalization with overlap
     ethr =  2.25E-07,  avg # of iterations =  2.0

     negative rho (up, down):  3.386E-02 0.000E+00

     total cpu time spent up to now is        5.8 secs

     total energy              =     -34.51546351 Ry
     estimated scf accuracy    <       0.00000629 Ry

     iteration #  5     ecut=    25.00 Ry     beta= 0.70
     Davidson diagonalization with overlap
     ethr =  7.86E-08,  avg # of iterations =  2.0

     negative rho (up, down):  3.385E-02 0.000E+00

     total cpu time spent up to now is        6.1 secs

     total energy              =     -34.51546512 Ry
     estimated scf accuracy    <       0.00000036 Ry

     iteration #  6     ecut=    25.00 Ry     beta= 0.70
     Davidson diagonalization with overlap
     ethr =  4.45E-09,  avg # of iterations =  2.0

     negative rho (up, down):  3.385E-02 0.000E+00

     total cpu time spent up to now is        6.5 secs

     total energy              =     -34.51546515 Ry
     estimated scf accuracy    <       0.00000002 Ry

     iteration #  7     ecut=    25.00 Ry     beta= 0.70
     Davidson diagonalization with overlap
     ethr =  2.11E-10,  avg # of iterations =  2.0

     negative rho (up, down):  3.385E-02 0.000E+00

     total cpu time spent up to now is        6.8 secs

     End of self-consistent calculation

          k = 0.0000 0.0000 0.0000 (  7123 PWs)   bands (ev):

   -24.4703 -14.8628  -6.7780  -6.7696

     highest occupied level (ev):    -6.7696

!    total energy              =     -34.51546515 Ry
     estimated scf accuracy    <          4.6E-09 Ry

     The total energy is the sum of the following terms:
     one-electron contribution =     -58.62382853 Ry
     hartree contribution      =      30.92623851 Ry
     xc contribution           =      -8.69294389 Ry
     ewald contribution        =       1.87506876 Ry

     convergence has been achieved in   7 iterations

     negative rho (up, down):  3.385E-02 0.000E+00

     Forces acting on atoms (cartesian axes, Ry/au):

     atom    1 type  2   force =    -0.00090555   -0.00860907   -0.02149184
     atom    2 type  1   force =    -0.00134850    0.00429679    0.01069962
     atom    3 type  1   force =     0.00225405    0.00431228    0.01079222

     Total force =     0.028491     Total SCF correction =     0.000029
     Energy error            =      9.6E-03
     Gradient error          =      2.1E-02

     number of scf cycles    =   2
     number of bfgs steps    =   1

     energy   old            =     -34.5058518391 Ry
     energy   new            =     -34.5154651508 Ry

     CASE: energy  _new < energy  _old

     new trust radius        =       0.0238136540 bohr
     new conv_thr            =       0.0000000100 Ry


ATOMIC_POSITIONS (angstrom)
O            -0.0002141853       -0.0070447563       -0.0175926169
H            -0.9486721567        0.0135200187        0.0290272304
H             0.9488863420        0.0135247376        0.0385653865



     Writing output data file ./h2o.save/
     NEW-OLD atomic charge density approx. for the potential

     Check: negative core charge=   -0.000020

     negative rho (up, down):  3.389E-02 0.000E+00

     total cpu time spent up to now is        7.3 secs

     Self-consistent Calculation

     iteration #  1     ecut=    25.00 Ry     beta= 0.70
     Davidson diagonalization with overlap
     ethr =  1.00E-06,  avg # of iterations =  5.0

     negative rho (up, down):  3.371E-02 0.000E+00

     total cpu time spent up to now is        7.7 secs

     total energy              =     -34.51645561 Ry
     estimated scf accuracy    <       0.00018206 Ry

     iteration #  2     ecut=    25.00 Ry     beta= 0.70
     Davidson diagonalization with overlap
     ethr =  2.28E-06,  avg # of iterations =  2.0

     negative rho (up, down):  3.371E-02 0.000E+00

     total cpu time spent up to now is        8.1 secs

     total energy              =     -34.51648983 Ry
     estimated scf accuracy    <       0.00000397 Ry

     iteration #  3     ecut=    25.00 Ry     beta= 0.70
     Davidson diagonalization with overlap
     ethr =  4.97E-08,  avg # of iterations =  3.0

     negative rho (up, down):  3.369E-02 0.000E+00

     total cpu time spent up to now is        8.5 secs

     total energy              =     -34.51649064 Ry
     estimated scf accuracy    <       0.00000103 Ry

     iteration #  4     ecut=    25.00 Ry     beta= 0.70
     Davidson diagonalization with overlap
     ethr =  1.29E-08,  avg # of iterations =  2.0

     negative rho (up, down):  3.370E-02 0.000E+00

     total cpu time spent up to now is        8.8 secs

     total energy              =     -34.51649082 Ry
     estimated scf accuracy    <       0.00000026 Ry

     iteration #  5     ecut=    25.00 Ry     beta= 0.70
     Davidson diagonalization with overlap
     ethr =  3.26E-09,  avg # of iterations =  2.0

     negative rho (up, down):  3.370E-02 0.000E+00

     total cpu time spent up to now is        9.2 secs

     total energy              =     -34.51649086 Ry
     estimated scf accuracy    <       0.00000001 Ry

     iteration #  6     ecut=    25.00 Ry     beta= 0.70
     Davidson diagonalization with overlap
     ethr =  1.57E-10,  avg # of iterations =  2.0

     negative rho (up, down):  3.370E-02 0.000E+00

     total cpu time spent up to now is        9.5 secs

     End of self-consistent calculation

          k = 0.0000 0.0000 0.0000 (  7123 PWs)   bands (ev):

   -24.4813 -14.8611  -6.7924  -6.7733

     highest occupied level (ev):    -6.7733

!    total energy              =     -34.51649086 Ry
     estimated scf accuracy    <          5.1E-10 Ry

     The total energy is the sum of the following terms:
     one-electron contribution =     -58.63316534 Ry
     hartree contribution      =      30.92912177 Ry
     xc contribution           =      -8.69376790 Ry
     ewald contribution        =       1.88132062 Ry

     convergence has been achieved in   6 iterations

     negative rho (up, down):  3.370E-02 0.000E+00

     Forces acting on atoms (cartesian axes, Ry/au):

     atom    1 type  2   force =     0.00301189   -0.01303034   -0.03254501
     atom    2 type  1   force =    -0.00421492    0.00655023    0.01632401
     atom    3 type  1   force =     0.00120303    0.00648011    0.01622100

     Total force =     0.043264     Total SCF correction =     0.000066
     Energy error            =      1.0E-03
     Gradient error          =      3.3E-02

     number of scf cycles    =   3
     number of bfgs steps    =   2

     energy   old            =     -34.5154651508 Ry
     energy   new            =     -34.5164908565 Ry

     CASE: energy  _new < energy  _old


     WARNING: bfgs curvature condition failed, Theta= 0.531
     uphill step: resetting bfgs history

     new trust radius        =       0.0261950194 bohr
     new conv_thr            =       0.0000000100 Ry


ATOMIC_POSITIONS (angstrom)
O             0.0009723821       -0.0121781972       -0.0304140655
H            -0.9503326696        0.0161005514        0.0354582467
H             0.9493602874        0.0160776458        0.0449558188



     Writing output data file ./h2o.save/
     NEW-OLD atomic charge density approx. for the potential

     Check: negative core charge=   -0.000020

     negative rho (up, down):  3.368E-02 0.000E+00

     total cpu time spent up to now is       10.0 secs

     Self-consistent Calculation

     iteration #  1     ecut=    25.00 Ry     beta= 0.70
     Davidson diagonalization with overlap
     ethr =  1.00E-06,  avg # of iterations =  6.0

     negative rho (up, down):  3.351E-02 0.000E+00

     total cpu time spent up to now is       10.4 secs

     total energy              =     -34.51804135 Ry
     estimated scf accuracy    <       0.00024022 Ry

     iteration #  2     ecut=    25.00 Ry     beta= 0.70
     Davidson diagonalization with overlap
     ethr =  3.00E-06,  avg # of iterations =  2.0

     negative rho (up, down):  3.359E-02 0.000E+00

     total cpu time spent up to now is       10.8 secs

     total energy              =     -34.51808573 Ry
     estimated scf accuracy    <       0.00002410 Ry

     iteration #  3     ecut=    25.00 Ry     beta= 0.70
     Davidson diagonalization with overlap
     ethr =  3.01E-07,  avg # of iterations =  2.0

     negative rho (up, down):  3.358E-02 0.000E+00

     total cpu time spent up to now is       11.1 secs

     total energy              =     -34.51809211 Ry
     estimated scf accuracy    <       0.00000656 Ry

     iteration #  4     ecut=    25.00 Ry     beta= 0.70
     Davidson diagonalization with overlap
     ethr =  8.20E-08,  avg # of iterations =  2.0

     negative rho (up, down):  3.358E-02 0.000E+00

     total cpu time spent up to now is       11.5 secs

     total energy              =     -34.51809316 Ry
     estimated scf accuracy    <       0.00000014 Ry

     iteration #  5     ecut=    25.00 Ry     beta= 0.70
     Davidson diagonalization with overlap
     ethr =  1.72E-09,  avg # of iterations =  2.0

     negative rho (up, down):  3.358E-02 0.000E+00

     total cpu time spent up to now is       11.8 secs

     total energy              =     -34.51809317 Ry
     estimated scf accuracy    <       0.00000001 Ry

     iteration #  6     ecut=    25.00 Ry     beta= 0.70
     Davidson diagonalization with overlap
     ethr =  1.59E-10,  avg # of iterations =  2.0

     negative rho (up, down):  3.358E-02 0.000E+00

     total cpu time spent up to now is       12.2 secs

     End of self-consistent calculation

          k = 0.0000 0.0000 0.0000 (  7123 PWs)   bands (ev):

   -24.4648 -14.8190  -6.8043  -6.7683

     highest occupied level (ev):    -6.7683

!    total energy              =     -34.51809317 Ry
     estimated scf accuracy    <          2.6E-10 Ry

     The total energy is the sum of the following terms:
     one-electron contribution =     -58.57649466 Ry
     hartree contribution      =      30.90179645 Ry
     xc contribution           =      -8.68939578 Ry
     ewald contribution        =       1.84600082 Ry

     convergence has been achieved in   6 iterations

     negative rho (up, down):  3.358E-02 0.000E+00

     Forces acting on atoms (cartesian axes, Ry/au):

     atom    1 type  2   force =    -0.00493888   -0.01741757   -0.04355527
     atom    2 type  1   force =     0.00560578    0.00861456    0.02154693
     atom    3 type  1   force =    -0.00066690    0.00880302    0.02200834

     Total force =     0.057940     Total SCF correction =     0.000058
     Energy error            =      1.6E-03
     Gradient error          =      4.4E-02

     number of scf cycles    =   4
     number of bfgs steps    =   3

     energy   old            =     -34.5164908565 Ry
     energy   new            =     -34.5180931678 Ry

     CASE: energy  _new < energy  _old


     WARNING: bfgs curvature condition failed, Theta= 0.572
     uphill step: resetting bfgs history

     new trust radius        =       0.0392925291 bohr
     new conv_thr            =       0.0000000100 Ry


ATOMIC_POSITIONS (angstrom)
O            -0.0012047827       -0.0198562437       -0.0496141796
H            -0.9478615213        0.0198980363        0.0449566053
H             0.9490663040        0.0199582074        0.0546575743



     Writing output data file ./h2o.save/
     NEW-OLD atomic charge density approx. for the potential

     Check: negative core charge=   -0.000020

     negative rho (up, down):  3.359E-02 0.000E+00

     total cpu time spent up to now is       12.6 secs

     Self-consistent Calculation

     iteration #  1     ecut=    25.00 Ry     beta= 0.70
     Davidson diagonalization with overlap
     ethr =  1.00E-06,  avg # of iterations =  6.0

     negative rho (up, down):  3.315E-02 0.000E+00

     total cpu time spent up to now is       13.0 secs

     total energy              =     -34.52124506 Ry
     estimated scf accuracy    <       0.00050432 Ry

     iteration #  2     ecut=    25.00 Ry     beta= 0.70
     Davidson diagonalization with overlap
     ethr =  6.30E-06,  avg # of iterations =  2.0

     negative rho (up, down):  3.324E-02 0.000E+00

     total cpu time spent up to now is       13.4 secs

     total energy              =     -34.52133796 Ry
     estimated scf accuracy    <       0.00004333 Ry

     iteration #  3     ecut=    25.00 Ry     beta= 0.70
     Davidson diagonalization with overlap
     ethr =  5.42E-07,  avg # of iterations =  2.0

     negative rho (up, down):  3.321E-02 0.000E+00

     total cpu time spent up to now is       13.7 secs

     total energy              =     -34.52134922 Ry
     estimated scf accuracy    <       0.00001283 Ry

     iteration #  4     ecut=    25.00 Ry     beta= 0.70
     Davidson diagonalization with overlap
     ethr =  1.60E-07,  avg # of iterations =  2.0

     negative rho (up, down):  3.321E-02 0.000E+00

     total cpu time spent up to now is       14.1 secs

     total energy              =     -34.52135160 Ry
     estimated scf accuracy    <       0.00000032 Ry

     iteration #  5     ecut=    25.00 Ry     beta= 0.70
     Davidson diagonalization with overlap
     ethr =  3.95E-09,  avg # of iterations =  2.0

     negative rho (up, down):  3.321E-02 0.000E+00

     total cpu time spent up to now is       14.4 secs

     total energy              =     -34.52135162 Ry
     estimated scf accuracy    <       0.00000003 Ry

     iteration #  6     ecut=    25.00 Ry     beta= 0.70
     Davidson diagonalization with overlap
     ethr =  3.24E-10,  avg # of iterations =  2.0

     negative rho (up, down):  3.321E-02 0.000E+00

     total cpu time spent up to now is       14.7 secs

     End of self-consistent calculation

          k = 0.0000 0.0000 0.0000 (  7123 PWs)   bands (ev):

   -24.4689 -14.7760  -6.8423  -6.7707

     highest occupied level (ev):    -6.7707

!    total energy              =     -34.52135162 Ry
     estimated scf accuracy    <          3.7E-10 Ry

     The total energy is the sum of the following terms:
     one-electron contribution =     -58.54153446 Ry
     hartree contribution      =      30.88260638 Ry
     xc contribution           =      -8.68701785 Ry
     ewald contribution        =       1.82459430 Ry

     convergence has been achieved in   6 iterations

     negative rho (up, down):  3.321E-02 0.000E+00

     Forces acting on atoms (cartesian axes, Ry/au):

     atom    1 type  2   force =     0.01110103   -0.02372247   -0.05922456
     atom    2 type  1   force =     0.00131585    0.01212527    0.03027832
     atom    3 type  1   force =    -0.01241688    0.01159720    0.02894624

     Total force =     0.079910     Total SCF correction =     0.000068
     Energy error            =      3.3E-03
     Gradient error          =      5.9E-02

     number of scf cycles    =   5
     number of bfgs steps    =   4

     energy   old            =     -34.5180931678 Ry
     energy   new            =     -34.5213516245 Ry

     CASE: energy  _new < energy  _old


     WARNING: bfgs curvature condition failed, Theta= 0.575
     uphill step: resetting bfgs history

     new trust radius        =       0.0589387936 bohr
     new conv_thr            =       0.0000000100 Ry


ATOMIC_POSITIONS (angstrom)
O             0.0041417898       -0.0312816611       -0.0781384125
H            -0.9472277712        0.0257379112        0.0595395038
H             0.9430859814        0.0255437499        0.0685989088



     Writing output data file ./h2o.save/
     NEW-OLD atomic charge density approx. for the potential

     Check: negative core charge=   -0.000020

     negative rho (up, down):  3.340E-02 0.000E+00

     total cpu time spent up to now is       15.2 secs

     Self-consistent Calculation

     iteration #  1     ecut=    25.00 Ry     beta= 0.70
     Davidson diagonalization with overlap
     ethr =  1.00E-06,  avg # of iterations =  7.0

     negative rho (up, down):  3.259E-02 0.000E+00

     total cpu time spent up to now is       15.6 secs

     total energy              =     -34.52764978 Ry
     estimated scf accuracy    <       0.00113279 Ry

     iteration #  2     ecut=    25.00 Ry     beta= 0.70
     Davidson diagonalization with overlap
     ethr =  1.42E-05,  avg # of iterations =  2.0

     negative rho (up, down):  3.279E-02 0.000E+00

     total cpu time spent up to now is       16.0 secs

     total energy              =     -34.52785596 Ry
     estimated scf accuracy    <       0.00015154 Ry

     iteration #  3     ecut=    25.00 Ry     beta= 0.70
     Davidson diagonalization with overlap
     ethr =  1.89E-06,  avg # of iterations =  2.0

     negative rho (up, down):  3.278E-02 0.000E+00

     total cpu time spent up to now is       16.3 secs

     total energy              =     -34.52789471 Ry
     estimated scf accuracy    <       0.00003649 Ry

     iteration #  4     ecut=    25.00 Ry     beta= 0.70
     Davidson diagonalization with overlap
     ethr =  4.56E-07,  avg # of iterations =  2.0

     negative rho (up, down):  3.280E-02 0.000E+00

     total cpu time spent up to now is       16.7 secs

     total energy              =     -34.52790058 Ry
     estimated scf accuracy    <       0.00000053 Ry

     iteration #  5     ecut=    25.00 Ry     beta= 0.70
     Davidson diagonalization with overlap
     ethr =  6.66E-09,  avg # of iterations =  2.0

     negative rho (up, down):  3.281E-02 0.000E+00

     total cpu time spent up to now is       17.0 secs

     total energy              =     -34.52790060 Ry
     estimated scf accuracy    <       0.00000007 Ry

     iteration #  6     ecut=    25.00 Ry     beta= 0.70
     Davidson diagonalization with overlap
     ethr =  8.59E-10,  avg # of iterations =  2.0

     negative rho (up, down):  3.281E-02 0.000E+00

     total cpu time spent up to now is       17.5 secs

     End of self-consistent calculation

          k = 0.0000 0.0000 0.0000 (  7123 PWs)   bands (ev):

   -24.4803 -14.6886  -6.9241  -6.7769

     highest occupied level (ev):    -6.7769

!    total energy              =     -34.52790059 Ry
     estimated scf accuracy    <          3.9E-09 Ry

     The total energy is the sum of the following terms:
     one-electron contribution =     -58.47750223 Ry
     hartree contribution      =      30.84716895 Ry
     xc contribution           =      -8.68286518 Ry
     ewald contribution        =       1.78529787 Ry

     convergence has been achieved in   6 iterations

     negative rho (up, down):  3.281E-02 0.000E+00

     Forces acting on atoms (cartesian axes, Ry/au):

     atom    1 type  2   force =    -0.02429317   -0.03160564   -0.07910760
     atom    2 type  1   force =     0.02561575    0.01493770    0.03744392
     atom    3 type  1   force =    -0.00132257    0.01666794    0.04166368

     Total force =     0.110199     Total SCF correction =     0.000144
     Energy error            =      6.5E-03
     Gradient error          =      7.9E-02

     number of scf cycles    =   6
     number of bfgs steps    =   5

     energy   old            =     -34.5213516245 Ry
     energy   new            =     -34.5279005876 Ry

     CASE: energy  _new < energy  _old


     WARNING: bfgs curvature condition failed, Theta= 0.632
     new trust radius        =       0.0884081904 bohr
     new conv_thr            =       0.0000000100 Ry


ATOMIC_POSITIONS (angstrom)
O             0.0430163574       -0.0410210781       -0.1022758720
H            -0.9676401179        0.0317845164        0.0745134135
H             0.9246237606        0.0292365616        0.0777624584



     Writing output data file ./h2o.save/
     NEW-OLD atomic charge density approx. for the potential

     Check: negative core charge=   -0.000019

     negative rho (up, down):  3.648E-02 0.000E+00

     total cpu time spent up to now is       18.1 secs

     Self-consistent Calculation

     iteration #  1     ecut=    25.00 Ry     beta= 0.70
     Davidson diagonalization with overlap
     ethr =  1.00E-06,  avg # of iterations =  6.0

     negative rho (up, down):  3.259E-02 0.000E+00

     total cpu time spent up to now is       18.5 secs

     total energy              =     -34.51649963 Ry
     estimated scf accuracy    <       0.00500542 Ry

     iteration #  2     ecut=    25.00 Ry     beta= 0.70
     Davidson diagonalization with overlap
     ethr =  6.26E-05,  avg # of iterations =  2.0

     negative rho (up, down):  3.264E-02 0.000E+00

     total cpu time spent up to now is       19.0 secs

     total energy              =     -34.51767364 Ry
     estimated scf accuracy    <       0.00020436 Ry

     iteration #  3     ecut=    25.00 Ry     beta= 0.70
     Davidson diagonalization with overlap
     ethr =  2.55E-06,  avg # of iterations =  2.0

     negative rho (up, down):  3.269E-02 0.000E+00

     total cpu time spent up to now is       19.4 secs

     total energy              =     -34.51770042 Ry
     estimated scf accuracy    <       0.00002236 Ry

     iteration #  4     ecut=    25.00 Ry     beta= 0.70
     Davidson diagonalization with overlap
     ethr =  2.79E-07,  avg # of iterations =  2.0

     negative rho (up, down):  3.280E-02 0.000E+00

     total cpu time spent up to now is       19.9 secs

     total energy              =     -34.51770561 Ry
     estimated scf accuracy    <       0.00000657 Ry

     iteration #  5     ecut=    25.00 Ry     beta= 0.70
     Davidson diagonalization with overlap
     ethr =  8.21E-08,  avg # of iterations =  2.0

     negative rho (up, down):  3.280E-02 0.000E+00

     total cpu time spent up to now is       20.3 secs

     total energy              =     -34.51770647 Ry
     estimated scf accuracy    <       0.00000017 Ry

     iteration #  6     ecut=    25.00 Ry     beta= 0.70
     Davidson diagonalization with overlap
     ethr =  2.06E-09,  avg # of iterations =  2.0

     negative rho (up, down):  3.280E-02 0.000E+00

     total cpu time spent up to now is        8.2 secs

     total energy              =     -34.51770651 Ry
     estimated scf accuracy    <       0.00000003 Ry

     iteration #  7     ecut=    25.00 Ry     beta= 0.70
     Davidson diagonalization with overlap
     ethr =  3.65E-10,  avg # of iterations =  2.0

     negative rho (up, down):  3.280E-02 0.000E+00

     total cpu time spent up to now is        8.7 secs

     End of self-consistent calculation

          k = 0.0000 0.0000 0.0000 (  7123 PWs)   bands (ev):

   -24.5199 -14.5092  -7.0002  -6.7674

     highest occupied level (ev):    -6.7674

!    total energy              =     -34.51770652 Ry
     estimated scf accuracy    <          7.8E-10 Ry

     The total energy is the sum of the following terms:
     one-electron contribution =     -58.36268764 Ry
     hartree contribution      =      30.79067857 Ry
     xc contribution           =      -8.67662798 Ry
     ewald contribution        =       1.73093054 Ry

     convergence has been achieved in   7 iterations

     negative rho (up, down):  3.280E-02 0.000E+00

     Forces acting on atoms (cartesian axes, Ry/au):

     atom    1 type  2   force =    -0.28210043   -0.04107630   -0.10413438
     atom    2 type  1   force =     0.14000924    0.00847870    0.02189640
     atom    3 type  1   force =     0.14209119    0.03259760    0.08223798

     Total force =     0.374542     Total SCF correction =     0.000023
     Energy error            =      1.0E-02
     Gradient error          =      2.8E-01

     number of scf cycles    =   7
     number of bfgs steps    =   6

     energy   old            =     -34.5279005876 Ry
     energy   new            =     -34.5177065165 Ry

     CASE: energy  _new > energy  _old

     new trust radius        =       0.0113733539 bohr
     new conv_thr            =       0.0000000100 Ry


ATOMIC_POSITIONS (angstrom)
O             0.0091428447       -0.0325345974       -0.0812435985
H            -0.9498537365        0.0265157823        0.0614658363
H             0.9407108918        0.0260188151        0.0697777621



     Writing output data file ./h2o.save/
     NEW-OLD atomic charge density approx. for the potential

     Check: negative core charge=   -0.000019

     negative rho (up, down):  3.465E-02 0.000E+00

     total cpu time spent up to now is        9.2 secs

     Self-consistent Calculation

     iteration #  1     ecut=    25.00 Ry     beta= 0.70
     Davidson diagonalization with overlap
     ethr =  1.00E-06,  avg # of iterations =  6.0

     negative rho (up, down):  3.252E-02 0.000E+00

     total cpu time spent up to now is        9.8 secs

     total energy              =     -34.52712800 Ry
     estimated scf accuracy    <       0.00388871 Ry

     iteration #  2     ecut=    25.00 Ry     beta= 0.70
     Davidson diagonalization with overlap
     ethr =  4.86E-05,  avg # of iterations =  2.0

     negative rho (up, down):  3.248E-02 0.000E+00

     total cpu time spent up to now is       10.2 secs

     total energy              =     -34.52803009 Ry
     estimated scf accuracy    <       0.00028815 Ry

     iteration #  3     ecut=    25.00 Ry     beta= 0.70
     Davidson diagonalization with overlap
     ethr =  3.60E-06,  avg # of iterations =  2.0

     negative rho (up, down):  3.265E-02 0.000E+00

     total cpu time spent up to now is       10.7 secs

     total energy              =     -34.52809094 Ry
     estimated scf accuracy    <       0.00005962 Ry

     iteration #  4     ecut=    25.00 Ry     beta= 0.70
     Davidson diagonalization with overlap
     ethr =  7.45E-07,  avg # of iterations =  2.0

     negative rho (up, down):  3.281E-02 0.000E+00

     total cpu time spent up to now is       11.1 secs

     total energy              =     -34.52810631 Ry
     estimated scf accuracy    <       0.00000253 Ry

     iteration #  5     ecut=    25.00 Ry     beta= 0.70
     Davidson diagonalization with overlap
     ethr =  3.16E-08,  avg # of iterations =  2.0

     negative rho (up, down):  3.281E-02 0.000E+00

     total cpu time spent up to now is       11.6 secs

     total energy              =     -34.52810652 Ry
     estimated scf accuracy    <       0.00000016 Ry

     iteration #  6     ecut=    25.00 Ry     beta= 0.70
     Davidson diagonalization with overlap
     ethr =  1.95E-09,  avg # of iterations =  2.0

     negative rho (up, down):  3.282E-02 0.000E+00

     total cpu time spent up to now is       12.0 secs

     total energy              =     -34.52810658 Ry
     estimated scf accuracy    <       0.00000002 Ry

     iteration #  7     ecut=    25.00 Ry     beta= 0.70
     Davidson diagonalization with overlap
     ethr =  2.29E-10,  avg # of iterations =  2.0

     negative rho (up, down):  3.282E-02 0.000E+00

     total cpu time spent up to now is       12.4 secs

     End of self-consistent calculation

          k = 0.0000 0.0000 0.0000 (  7123 PWs)   bands (ev):

   -24.4783 -14.6695  -6.9327  -6.7756

     highest occupied level (ev):    -6.7756

!    total energy              =     -34.52810658 Ry
     estimated scf accuracy    <          5.3E-10 Ry

     The total energy is the sum of the following terms:
     one-electron contribution =     -58.45846031 Ry
     hartree contribution      =      30.83762466 Ry
     xc contribution           =      -8.68149180 Ry
     ewald contribution        =       1.77422087 Ry

     convergence has been achieved in   7 iterations

     negative rho (up, down):  3.282E-02 0.000E+00

     Forces acting on atoms (cartesian axes, Ry/au):

     atom    1 type  2   force =    -0.05875438   -0.03232812   -0.08116190
     atom    2 type  1   force =     0.04377675    0.01408746    0.03542302
     atom    3 type  1   force =     0.01497763    0.01824067    0.04573888

     Total force =     0.130779     Total SCF correction =     0.000067
     Energy error            =      2.1E-04
     Gradient error          =      8.1E-02

     number of scf cycles    =   8
     number of bfgs steps    =   6

     energy   old            =     -34.5279005876 Ry
     energy   new            =     -34.5281065784 Ry

     CASE: energy  _new < energy  _old


     WARNING: info=  6 for Hessian
     uphill step: resetting bfgs history

     new trust radius        =       0.0341200617 bohr
     new conv_thr            =       0.0000000021 Ry


ATOMIC_POSITIONS (angstrom)
O            -0.0009332982       -0.0380787423       -0.0951625430
H            -0.9423461981        0.0289317254        0.0675407444
H             0.9432794962        0.0291470169        0.0776217986



     Writing output data file ./h2o.save/
     NEW-OLD atomic charge density approx. for the potential

     Check: negative core charge=   -0.000019

     negative rho (up, down):  3.327E-02 0.000E+00

     total cpu time spent up to now is       13.0 secs

     Self-consistent Calculation

     iteration #  1     ecut=    25.00 Ry     beta= 0.70
     Davidson diagonalization with overlap
     ethr =  1.00E-06,  avg # of iterations =  5.0

     negative rho (up, down):  3.281E-02 0.000E+00

     total cpu time spent up to now is       13.5 secs

     total energy              =     -34.53268507 Ry
     estimated scf accuracy    <       0.00054384 Ry

     iteration #  2     ecut=    25.00 Ry     beta= 0.70
     Davidson diagonalization with overlap
     ethr =  6.80E-06,  avg # of iterations =  2.0

     negative rho (up, down):  3.290E-02 0.000E+00

     total cpu time spent up to now is       14.0 secs

     total energy              =     -34.53280155 Ry
     estimated scf accuracy    <       0.00005931 Ry

     iteration #  3     ecut=    25.00 Ry     beta= 0.70
     Davidson diagonalization with overlap
     ethr =  7.41E-07,  avg # of iterations =  2.0

     negative rho (up, down):  3.289E-02 0.000E+00

     total cpu time spent up to now is       14.4 secs

     total energy              =     -34.53281644 Ry
     estimated scf accuracy    <       0.00001336 Ry

     iteration #  4     ecut=    25.00 Ry     beta= 0.70
     Davidson diagonalization with overlap
     ethr =  1.67E-07,  avg # of iterations =  2.0

     negative rho (up, down):  3.290E-02 0.000E+00

     total cpu time spent up to now is       14.9 secs

     total energy              =     -34.53281912 Ry
     estimated scf accuracy    <       0.00000030 Ry

     iteration #  5     ecut=    25.00 Ry     beta= 0.70
     Davidson diagonalization with overlap
     ethr =  3.70E-09,  avg # of iterations =  2.0

     negative rho (up, down):  3.290E-02 0.000E+00

     total cpu time spent up to now is       15.5 secs

     total energy              =     -34.53281912 Ry
     estimated scf accuracy    <       0.00000002 Ry

     iteration #  6     ecut=    25.00 Ry     beta= 0.70
     Davidson diagonalization with overlap
     ethr =  3.07E-10,  avg # of iterations =  2.0

     negative rho (up, down):  3.290E-02 0.000E+00

     total cpu time spent up to now is       16.0 secs

     End of self-consistent calculation

          k = 0.0000 0.0000 0.0000 (  7123 PWs)   bands (ev):

   -24.4843 -14.6197  -6.9846  -6.7801

     highest occupied level (ev):    -6.7801

!    total energy              =     -34.53281912 Ry
     estimated scf accuracy    <          1.1E-09 Ry

     The total energy is the sum of the following terms:
     one-electron contribution =     -58.42337906 Ry
     hartree contribution      =      30.81745115 Ry
     xc contribution           =      -8.67913260 Ry
     ewald contribution        =       1.75224138 Ry

     convergence has been achieved in   6 iterations

     negative rho (up, down):  3.290E-02 0.000E+00

     Forces acting on atoms (cartesian axes, Ry/au):

     atom    1 type  2   force =     0.01052253   -0.03507794   -0.08753825
     atom    2 type  1   force =     0.01367741    0.01795099    0.04486513
     atom    3 type  1   force =    -0.02419994    0.01712695    0.04267312

     Total force =     0.119274     Total SCF correction =     0.000037
     Energy error            =      4.7E-03
     Gradient error          =      8.8E-02

     number of scf cycles    =   9
     number of bfgs steps    =   7

     energy   old            =     -34.5281065784 Ry
     energy   new            =     -34.5328191188 Ry

     CASE: energy  _new < energy  _old

     new trust radius        =       0.0511800925 bohr
     new conv_thr            =       0.0000000100 Ry


ATOMIC_POSITIONS (angstrom)
O            -0.0059341531       -0.0479599990       -0.1198781139
H            -0.9348662685        0.0337026025        0.0794895653
H             0.9408004217        0.0342573965        0.0903885486



     Writing output data file ./h2o.save/
     NEW-OLD atomic charge density approx. for the potential

     Check: negative core charge=   -0.000020

     negative rho (up, down):  3.371E-02 0.000E+00

     total cpu time spent up to now is       16.8 secs

     Self-consistent Calculation

     iteration #  1     ecut=    25.00 Ry     beta= 0.70
     Davidson diagonalization with overlap
     ethr =  1.00E-06,  avg # of iterations =  6.0

     negative rho (up, down):  3.303E-02 0.000E+00

     total cpu time spent up to now is       17.4 secs

     total energy              =     -34.54016710 Ry
     estimated scf accuracy    <       0.00081305 Ry

     iteration #  2     ecut=    25.00 Ry     beta= 0.70
     Davidson diagonalization with overlap
     ethr =  1.02E-05,  avg # of iterations =  2.0

     negative rho (up, down):  3.321E-02 0.000E+00

     total cpu time spent up to now is       17.8 secs

     total energy              =     -34.54031065 Ry
     estimated scf accuracy    <       0.00021076 Ry

     iteration #  3     ecut=    25.00 Ry     beta= 0.70
     Davidson diagonalization with overlap
     ethr =  2.63E-06,  avg # of iterations =  2.0

     negative rho (up, down):  3.321E-02 0.000E+00

     total cpu time spent up to now is       18.2 secs

     total energy              =     -34.54036418 Ry
     estimated scf accuracy    <       0.00002408 Ry

     iteration #  4     ecut=    25.00 Ry     beta= 0.70
     Davidson diagonalization with overlap
     ethr =  3.01E-07,  avg # of iterations =  2.0

     negative rho (up, down):  3.322E-02 0.000E+00

     total cpu time spent up to now is       18.6 secs

     total energy              =     -34.54036765 Ry
     estimated scf accuracy    <       0.00000032 Ry

     iteration #  5     ecut=    25.00 Ry     beta= 0.70
     Davidson diagonalization with overlap
     ethr =  3.97E-09,  avg # of iterations =  2.0

     negative rho (up, down):  3.323E-02 0.000E+00

     total cpu time spent up to now is       19.0 secs

     total energy              =     -34.54036767 Ry
     estimated scf accuracy    <       0.00000005 Ry

     iteration #  6     ecut=    25.00 Ry     beta= 0.70
     Davidson diagonalization with overlap
     ethr =  6.24E-10,  avg # of iterations =  2.0

     negative rho (up, down):  3.323E-02 0.000E+00

     total cpu time spent up to now is       19.4 secs

     End of self-consistent calculation

          k = 0.0000 0.0000 0.0000 (  7123 PWs)   bands (ev):

   -24.5013 -14.5096  -7.0930  -6.7888

     highest occupied level (ev):    -6.7888

!    total energy              =     -34.54036768 Ry
     estimated scf accuracy    <          4.7E-10 Ry

     The total energy is the sum of the following terms:
     one-electron contribution =     -58.35217855 Ry
     hartree contribution      =      30.77722989 Ry
     xc contribution           =      -8.67458342 Ry
     ewald contribution        =       1.70916440 Ry

     convergence has been achieved in   6 iterations

     negative rho (up, down):  3.323E-02 0.000E+00

     Forces acting on atoms (cartesian axes, Ry/au):

     atom    1 type  2   force =     0.04286187   -0.03888953   -0.09682644
     atom    2 type  1   force =     0.00369624    0.02153842    0.05376071
     atom    3 type  1   force =    -0.04655811    0.01735111    0.04306573

     Total force =     0.142885     Total SCF correction =     0.000025
     Energy error            =      7.5E-03
     Gradient error          =      9.7E-02

     number of scf cycles    =  10
     number of bfgs steps    =   8

     energy   old            =     -34.5328191188 Ry
     energy   new            =     -34.5403676766 Ry

     CASE: energy  _new < energy  _old


     WARNING: bfgs curvature condition failed, Theta= 0.512
     new trust radius        =       0.0767701387 bohr
     new conv_thr            =       0.0000000100 Ry


ATOMIC_POSITIONS (angstrom)
O            -0.0214931137       -0.0618692863       -0.1547326938
H            -0.9244469592        0.0393588198        0.0936485485
H             0.9459400729        0.0425104664        0.1110841453



     Writing output data file ./h2o.save/
     NEW-OLD atomic charge density approx. for the potential

     Check: negative core charge=   -0.000020

     negative rho (up, down):  3.502E-02 0.000E+00

     total cpu time spent up to now is       20.0 secs

     Self-consistent Calculation

     iteration #  1     ecut=    25.00 Ry     beta= 0.70
     Davidson diagonalization with overlap
     ethr =  1.00E-06,  avg # of iterations =  7.0

     negative rho (up, down):  3.319E-02 0.000E+00

     total cpu time spent up to now is       20.9 secs

     total energy              =     -34.54717961 Ry
     estimated scf accuracy    <       0.00231062 Ry

     iteration #  2     ecut=    25.00 Ry     beta= 0.70
     Davidson diagonalization with overlap
     ethr =  2.89E-05,  avg # of iterations =  2.0

     negative rho (up, down):  3.347E-02 0.000E+00

     total cpu time spent up to now is       21.3 secs

     total energy              =     -34.54764554 Ry
     estimated scf accuracy    <       0.00081992 Ry

     iteration #  3     ecut=    25.00 Ry     beta= 0.70
     Davidson diagonalization with overlap
     ethr =  1.02E-05,  avg # of iterations =  2.0

     negative rho (up, down):  3.350E-02 0.000E+00

     total cpu time spent up to now is       21.7 secs

     total energy              =     -34.54784227 Ry
     estimated scf accuracy    <       0.00004946 Ry

     iteration #  4     ecut=    25.00 Ry     beta= 0.70
     Davidson diagonalization with overlap
     ethr =  6.18E-07,  avg # of iterations =  2.0

     negative rho (up, down):  3.355E-02 0.000E+00

     total cpu time spent up to now is       22.1 secs

     total energy              =     -34.54784892 Ry
     estimated scf accuracy    <       0.00000098 Ry

     iteration #  5     ecut=    25.00 Ry     beta= 0.70
     Davidson diagonalization with overlap
     ethr =  1.22E-08,  avg # of iterations =  2.0

     negative rho (up, down):  3.355E-02 0.000E+00

     total cpu time spent up to now is       22.5 secs

     total energy              =     -34.54784902 Ry
     estimated scf accuracy    <       0.00000011 Ry

     iteration #  6     ecut=    25.00 Ry     beta= 0.70
     Davidson diagonalization with overlap
     ethr =  1.41E-09,  avg # of iterations =  2.0

     negative rho (up, down):  3.355E-02 0.000E+00

     total cpu time spent up to now is       22.9 secs

     End of self-consistent calculation

          k = 0.0000 0.0000 0.0000 (  7123 PWs)   bands (ev):

   -24.4789 -14.2491  -7.2558  -6.7831

     highest occupied level (ev):    -6.7831

!    total energy              =     -34.54784903 Ry
     estimated scf accuracy    <          6.4E-10 Ry

     The total energy is the sum of the following terms:
     one-electron contribution =     -58.10918203 Ry
     hartree contribution      =      30.65352130 Ry
     xc contribution           =      -8.65720174 Ry
     ewald contribution        =       1.56501343 Ry

     convergence has been achieved in   6 iterations

     negative rho (up, down):  3.355E-02 0.000E+00

     Forces acting on atoms (cartesian axes, Ry/au):

     atom    1 type  2   force =     0.13276737   -0.03996087   -0.09913298
     atom    2 type  1   force =    -0.02660614    0.02799369    0.06982823
     atom    3 type  1   force =    -0.10616123    0.01196718    0.02930475

     Total force =     0.218383     Total SCF correction =     0.000017
     Energy error            =      7.5E-03
     Gradient error          =      1.3E-01

     number of scf cycles    =  11
     number of bfgs steps    =   9

     energy   old            =     -34.5403676766 Ry
     energy   new            =     -34.5478490319 Ry

     CASE: energy  _new < energy  _old

     new trust radius        =       0.1151552081 bohr
     new conv_thr            =       0.0000000100 Ry


ATOMIC_POSITIONS (angstrom)
O            -0.0434223742       -0.0828388787       -0.2075793027
H            -0.9059032192        0.0495003722        0.1191886952
H             0.9493255934        0.0533385065        0.1383906075



     Writing output data file ./h2o.save/
     NEW-OLD atomic charge density approx. for the potential

     Check: negative core charge=   -0.000019

     negative rho (up, down):  3.658E-02 0.000E+00

     total cpu time spent up to now is       23.4 secs

     Self-consistent Calculation

     iteration #  1     ecut=    25.00 Ry     beta= 0.70
     Davidson diagonalization with overlap
     ethr =  1.00E-06,  avg # of iterations =  6.0

     negative rho (up, down):  3.224E-02 0.000E+00

     total cpu time spent up to now is       23.8 secs

     total energy              =     -34.55336696 Ry
     estimated scf accuracy    <       0.00450643 Ry

     iteration #  2     ecut=    25.00 Ry     beta= 0.70
     Davidson diagonalization with overlap
     ethr =  5.63E-05,  avg # of iterations =  2.0

     negative rho (up, down):  3.252E-02 0.000E+00

     total cpu time spent up to now is       24.2 secs

     total energy              =     -34.55428291 Ry
     estimated scf accuracy    <       0.00213401 Ry

     iteration #  3     ecut=    25.00 Ry     beta= 0.70
     Davidson diagonalization with overlap
     ethr =  2.67E-05,  avg # of iterations =  2.0

     negative rho (up, down):  3.260E-02 0.000E+00

     total cpu time spent up to now is       24.6 secs

     total energy              =     -34.55476408 Ry
     estimated scf accuracy    <       0.00006550 Ry

     iteration #  4     ecut=    25.00 Ry     beta= 0.70
     Davidson diagonalization with overlap
     ethr =  8.19E-07,  avg # of iterations =  2.0

     negative rho (up, down):  3.266E-02 0.000E+00

     total cpu time spent up to now is       24.9 secs

     total energy              =     -34.55477131 Ry
     estimated scf accuracy    <       0.00000300 Ry

     iteration #  5     ecut=    25.00 Ry     beta= 0.70
     Davidson diagonalization with overlap
     ethr =  3.75E-08,  avg # of iterations =  2.0

     negative rho (up, down):  3.266E-02 0.000E+00

     total cpu time spent up to now is       25.3 secs

     total energy              =     -34.55477188 Ry
     estimated scf accuracy    <       0.00000025 Ry

     iteration #  6     ecut=    25.00 Ry     beta= 0.70
     Davidson diagonalization with overlap
     ethr =  3.18E-09,  avg # of iterations =  2.0

     negative rho (up, down):  3.266E-02 0.000E+00

     total cpu time spent up to now is       25.7 secs

     End of self-consistent calculation

          k = 0.0000 0.0000 0.0000 (  7123 PWs)   bands (ev):

   -24.4630 -13.7878  -7.5644  -6.7807

     highest occupied level (ev):    -6.7807

!    total energy              =     -34.55477192 Ry
     estimated scf accuracy    <          1.7E-09 Ry

     The total energy is the sum of the following terms:
     one-electron contribution =     -57.71703454 Ry
     hartree contribution      =      30.45191968 Ry
     xc contribution           =      -8.62973736 Ry
     ewald contribution        =       1.34008029 Ry

     convergence has been achieved in   6 iterations

     negative rho (up, down):  3.266E-02 0.000E+00

     Forces acting on atoms (cartesian axes, Ry/au):

     atom    1 type  2   force =     0.21557163   -0.03685688   -0.09109785
     atom    2 type  1   force =    -0.05450455    0.03541736    0.08839576
     atom    3 type  1   force =    -0.16106709    0.00143952    0.00270209

     Total force =     0.306789     Total SCF correction =     0.000016
     Energy error            =      6.9E-03
     Gradient error          =      2.2E-01

     number of scf cycles    =  12
     number of bfgs steps    =  10

     energy   old            =     -34.5478490319 Ry
     energy   new            =     -34.5547719224 Ry

     CASE: energy  _new < energy  _old

     new trust radius        =       0.0972956870 bohr
     new conv_thr            =       0.0000000100 Ry


ATOMIC_POSITIONS (angstrom)
O            -0.0617668316       -0.1004475574       -0.2523486170
H            -0.8849945215        0.0626758417        0.1525250504
H             0.9467613531        0.0577717157        0.1498235666



     Writing output data file ./h2o.save/
     NEW-OLD atomic charge density approx. for the potential

     Check: negative core charge=   -0.000019

     negative rho (up, down):  3.606E-02 0.000E+00

     total cpu time spent up to now is       26.2 secs

     Self-consistent Calculation

     iteration #  1     ecut=    25.00 Ry     beta= 0.70
     Davidson diagonalization with overlap
     ethr =  1.00E-06,  avg # of iterations =  5.0

     negative rho (up, down):  3.251E-02 0.000E+00

     total cpu time spent up to now is       26.6 secs

     total energy              =     -34.55897969 Ry
     estimated scf accuracy    <       0.00307098 Ry

     iteration #  2     ecut=    25.00 Ry     beta= 0.70
     Davidson diagonalization with overlap
     ethr =  3.84E-05,  avg # of iterations =  2.0

     negative rho (up, down):  3.273E-02 0.000E+00

     total cpu time spent up to now is       26.9 secs

     total energy              =     -34.55964793 Ry
     estimated scf accuracy    <       0.00202457 Ry

     iteration #  3     ecut=    25.00 Ry     beta= 0.70
     Davidson diagonalization with overlap
     ethr =  2.53E-05,  avg # of iterations =  2.0

     negative rho (up, down):  3.281E-02 0.000E+00

     total cpu time spent up to now is       27.3 secs

     total energy              =     -34.56004733 Ry
     estimated scf accuracy    <       0.00002167 Ry

     iteration #  4     ecut=    25.00 Ry     beta= 0.70
     Davidson diagonalization with overlap
     ethr =  2.71E-07,  avg # of iterations =  2.0

     negative rho (up, down):  3.284E-02 0.000E+00

     total cpu time spent up to now is       27.6 secs

     total energy              =     -34.56004835 Ry
     estimated scf accuracy    <       0.00000384 Ry

     iteration #  5     ecut=    25.00 Ry     beta= 0.70
     Davidson diagonalization with overlap
     ethr =  4.80E-08,  avg # of iterations =  2.0

     negative rho (up, down):  3.284E-02 0.000E+00

     total cpu time spent up to now is       28.0 secs

     total energy              =     -34.56004909 Ry
     estimated scf accuracy    <       0.00000005 Ry

     iteration #  6     ecut=    25.00 Ry     beta= 0.70
     Davidson diagonalization with overlap
     ethr =  6.27E-10,  avg # of iterations =  2.0

     negative rho (up, down):  3.284E-02 0.000E+00

     total cpu time spent up to now is       10.3 secs

     End of self-consistent calculation

          k = 0.0000 0.0000 0.0000 (  7123 PWs)   bands (ev):

   -24.4503 -13.3570  -7.8824  -6.7851

     highest occupied level (ev):    -6.7851

!    total energy              =     -34.56004909 Ry
     estimated scf accuracy    <          1.2E-09 Ry

     The total energy is the sum of the following terms:
     one-electron contribution =     -57.37416571 Ry
     hartree contribution      =      30.27365576 Ry
     xc contribution           =      -8.60543512 Ry
     ewald contribution        =       1.14589597 Ry

     convergence has been achieved in   6 iterations

     negative rho (up, down):  3.284E-02 0.000E+00

     Forces acting on atoms (cartesian axes, Ry/au):

     atom    1 type  2   force =     0.23743857   -0.02942445   -0.07235257
     atom    2 type  1   force =    -0.05564675    0.03685657    0.09207919
     atom    3 type  1   force =    -0.18179182   -0.00743212   -0.01972662

     Total force =     0.330006     Total SCF correction =     0.000043
     Energy error            =      5.3E-03
     Gradient error          =      2.4E-01

     number of scf cycles    =  13
     number of bfgs steps    =  11

     energy   old            =     -34.5547719224 Ry
     energy   new            =     -34.5600490933 Ry

     CASE: energy  _new < energy  _old

     new trust radius        =       0.1070252557 bohr
     new conv_thr            =       0.0000000100 Ry


ATOMIC_POSITIONS (angstrom)
O            -0.0811831144       -0.1175049432       -0.2959684714
H            -0.8546896737        0.0802312458        0.1970332987
H             0.9358727881        0.0572736974        0.1489351727



     Writing output data file ./h2o.save/
     NEW-OLD atomic charge density approx. for the potential

     Check: negative core charge=   -0.000019

     negative rho (up, down):  3.744E-02 0.000E+00

     total cpu time spent up to now is       10.9 secs

     Self-consistent Calculation

     iteration #  1     ecut=    25.00 Ry     beta= 0.70
     Davidson diagonalization with overlap
     ethr =  1.00E-06,  avg # of iterations =  5.0

     negative rho (up, down):  3.349E-02 0.000E+00

     total cpu time spent up to now is       11.4 secs

     total energy              =     -34.56564571 Ry
     estimated scf accuracy    <       0.00286476 Ry

     iteration #  2     ecut=    25.00 Ry     beta= 0.70
     Davidson diagonalization with overlap
     ethr =  3.58E-05,  avg # of iterations =  2.0

     negative rho (up, down):  3.363E-02 0.000E+00

     total cpu time spent up to now is       11.8 secs

     total energy              =     -34.56625962 Ry
     estimated scf accuracy    <       0.00214540 Ry

     iteration #  3     ecut=    25.00 Ry     beta= 0.70
     Davidson diagonalization with overlap
     ethr =  2.68E-05,  avg # of iterations =  2.0

     negative rho (up, down):  3.367E-02 0.000E+00

     total cpu time spent up to now is       12.2 secs

     total energy              =     -34.56665755 Ry
     estimated scf accuracy    <       0.00002123 Ry

     iteration #  4     ecut=    25.00 Ry     beta= 0.70
     Davidson diagonalization with overlap
     ethr =  2.65E-07,  avg # of iterations =  2.0

     negative rho (up, down):  3.369E-02 0.000E+00

     total cpu time spent up to now is       12.6 secs

     total energy              =     -34.56666022 Ry
     estimated scf accuracy    <       0.00000633 Ry

     iteration #  5     ecut=    25.00 Ry     beta= 0.70
     Davidson diagonalization with overlap
     ethr =  7.92E-08,  avg # of iterations =  2.0

     negative rho (up, down):  3.369E-02 0.000E+00

     total cpu time spent up to now is       13.0 secs

     total energy              =     -34.56666109 Ry
     estimated scf accuracy    <       0.00000009 Ry

     iteration #  6     ecut=    25.00 Ry     beta= 0.70
     Davidson diagonalization with overlap
     ethr =  1.14E-09,  avg # of iterations =  2.0

     negative rho (up, down):  3.369E-02 0.000E+00

     total cpu time spent up to now is       13.6 secs

     total energy              =     -34.56666113 Ry
     estimated scf accuracy    <       0.00000003 Ry

     iteration #  7     ecut=    25.00 Ry     beta= 0.70
     Davidson diagonalization with overlap
     ethr =  3.26E-10,  avg # of iterations =  2.0

     negative rho (up, down):  3.369E-02 0.000E+00

     total cpu time spent up to now is       14.0 secs

     End of self-consistent calculation

          k = 0.0000 0.0000 0.0000 (  7123 PWs)   bands (ev):

   -24.4418 -12.9245  -8.2420  -6.7995

     highest occupied level (ev):    -6.7995

!    total energy              =     -34.56666113 Ry
     estimated scf accuracy    <          1.4E-09 Ry

     The total energy is the sum of the following terms:
     one-electron contribution =     -57.07220568 Ry
     hartree contribution      =      30.11308090 Ry
     xc contribution           =      -8.58315985 Ry
     ewald contribution        =       0.97562350 Ry

     convergence has been achieved in   7 iterations

     negative rho (up, down):  3.369E-02 0.000E+00

     Forces acting on atoms (cartesian axes, Ry/au):

     atom    1 type  2   force =     0.22891525   -0.01752426   -0.04233771
     atom    2 type  1   force =    -0.04292771    0.03286765    0.08211993
     atom    3 type  1   force =    -0.18598754   -0.01534339   -0.03978222

     Total force =     0.317140     Total SCF correction =     0.000025
     Energy error            =      6.6E-03
     Gradient error          =      2.3E-01

     number of scf cycles    =  14
     number of bfgs steps    =  12

     energy   old            =     -34.5600490933 Ry
     energy   new            =     -34.5666611318 Ry

     CASE: energy  _new < energy  _old

     new trust radius        =       0.1605378835 bohr
     new conv_thr            =       0.0000000100 Ry


ATOMIC_POSITIONS (angstrom)
O            -0.1055189906       -0.1363988158       -0.3444496761
H            -0.8042205156        0.1052904346        0.2606093285
H             0.9097395062        0.0511083813        0.1338403476



     Writing output data file ./h2o.save/
     NEW-OLD atomic charge density approx. for the potential

     Check: negative core charge=   -0.000020

     negative rho (up, down):  3.915E-02 0.000E+00

     total cpu time spent up to now is       14.7 secs

     Self-consistent Calculation

     iteration #  1     ecut=    25.00 Ry     beta= 0.70
     Davidson diagonalization with overlap
     ethr =  1.00E-06,  avg # of iterations =  7.0

     negative rho (up, down):  3.397E-02 0.000E+00

     total cpu time spent up to now is       15.3 secs

     total energy              =     -34.57482553 Ry
     estimated scf accuracy    <       0.00350806 Ry

     iteration #  2     ecut=    25.00 Ry     beta= 0.70
     Davidson diagonalization with overlap
     ethr =  4.39E-05,  avg # of iterations =  2.0

     negative rho (up, down):  3.409E-02 0.000E+00

     total cpu time spent up to now is       15.7 secs

     total energy              =     -34.57546769 Ry
     estimated scf accuracy    <       0.00241642 Ry

     iteration #  3     ecut=    25.00 Ry     beta= 0.70
     Davidson diagonalization with overlap
     ethr =  3.02E-05,  avg # of iterations =  2.0

     negative rho (up, down):  3.414E-02 0.000E+00

     total cpu time spent up to now is       16.1 secs

     total energy              =     -34.57594762 Ry
     estimated scf accuracy    <       0.00004306 Ry

     iteration #  4     ecut=    25.00 Ry     beta= 0.70
     Davidson diagonalization with overlap
     ethr =  5.38E-07,  avg # of iterations =  2.0

     negative rho (up, down):  3.417E-02 0.000E+00

     total cpu time spent up to now is       16.5 secs

     total energy              =     -34.57594784 Ry
     estimated scf accuracy    <       0.00000754 Ry

     iteration #  5     ecut=    25.00 Ry     beta= 0.70
     Davidson diagonalization with overlap
     ethr =  9.43E-08,  avg # of iterations =  2.0

     negative rho (up, down):  3.418E-02 0.000E+00

     total cpu time spent up to now is       16.9 secs

     total energy              =     -34.57594921 Ry
     estimated scf accuracy    <       0.00000006 Ry

     iteration #  6     ecut=    25.00 Ry     beta= 0.70
     Davidson diagonalization with overlap
     ethr =  7.42E-10,  avg # of iterations =  3.0

     negative rho (up, down):  3.418E-02 0.000E+00

     total cpu time spent up to now is       17.4 secs

     total energy              =     -34.57594922 Ry
     estimated scf accuracy    <       0.00000004 Ry

     iteration #  7     ecut=    25.00 Ry     beta= 0.70
     Davidson diagonalization with overlap
     ethr =  5.59E-10,  avg # of iterations =  2.0

     negative rho (up, down):  3.418E-02 0.000E+00

     total cpu time spent up to now is       17.8 secs

     End of self-consistent calculation

          k = 0.0000 0.0000 0.0000 (  7123 PWs)   bands (ev):

   -24.4284 -12.4198  -8.7022  -6.8248

     highest occupied level (ev):    -6.8248

!    total energy              =     -34.57594923 Ry
     estimated scf accuracy    <          2.1E-10 Ry

     The total energy is the sum of the following terms:
     one-electron contribution =     -56.78084394 Ry
     hartree contribution      =      29.95438871 Ry
     xc contribution           =      -8.55965969 Ry
     ewald contribution        =       0.81016569 Ry

     convergence has been achieved in   7 iterations

     negative rho (up, down):  3.418E-02 0.000E+00

     Forces acting on atoms (cartesian axes, Ry/au):

     atom    1 type  2   force =     0.19501550    0.00351341    0.01003857
     atom    2 type  1   force =    -0.01893361    0.01988390    0.04997458
     atom    3 type  1   force =    -0.17608190   -0.02339732   -0.06001315

     Total force =     0.276675     Total SCF correction =     0.000024
     Energy error            =      9.3E-03
     Gradient error          =      2.0E-01

     number of scf cycles    =  15
     number of bfgs steps    =  13

     energy   old            =     -34.5666611318 Ry
     energy   new            =     -34.5759492279 Ry

     CASE: energy  _new < energy  _old

     new trust radius        =       0.3093726572 bohr
     new conv_thr            =       0.0000000100 Ry


ATOMIC_POSITIONS (angstrom)
O            -0.1404771359       -0.1575219833       -0.3998054142
H            -0.6925593687        0.1490023232        0.3720678064
H             0.8330365046        0.0285196601        0.0777376078



     Writing output data file ./h2o.save/
     NEW-OLD atomic charge density approx. for the potential

     Check: negative core charge=   -0.000020

     negative rho (up, down):  4.234E-02 0.000E+00

     total cpu time spent up to now is       18.3 secs

     Self-consistent Calculation

     iteration #  1     ecut=    25.00 Ry     beta= 0.70
     Davidson diagonalization with overlap
     ethr =  1.00E-06,  avg # of iterations =  8.0

     negative rho (up, down):  3.426E-02 0.000E+00

     total cpu time spent up to now is       18.8 secs

     total energy              =     -34.59092772 Ry
     estimated scf accuracy    <       0.00517214 Ry

     iteration #  2     ecut=    25.00 Ry     beta= 0.70
     Davidson diagonalization with overlap
     ethr =  6.47E-05,  avg # of iterations =  2.0

     negative rho (up, down):  3.432E-02 0.000E+00

     total cpu time spent up to now is       19.1 secs

     total energy              =     -34.59138323 Ry
     estimated scf accuracy    <       0.00174499 Ry

     iteration #  3     ecut=    25.00 Ry     beta= 0.70
     Davidson diagonalization with overlap
     ethr =  2.18E-05,  avg # of iterations =  2.0

     negative rho (up, down):  3.444E-02 0.000E+00

     total cpu time spent up to now is       19.6 secs

     total energy              =     -34.59182269 Ry
     estimated scf accuracy    <       0.00030145 Ry

     iteration #  4     ecut=    25.00 Ry     beta= 0.70
     Davidson diagonalization with overlap
     ethr =  3.77E-06,  avg # of iterations =  2.0

     negative rho (up, down):  3.450E-02 0.000E+00

     total cpu time spent up to now is       20.0 secs

     total energy              =     -34.59186191 Ry
     estimated scf accuracy    <       0.00000347 Ry

     iteration #  5     ecut=    25.00 Ry     beta= 0.70
     Davidson diagonalization with overlap
     ethr =  4.34E-08,  avg # of iterations =  3.0

     negative rho (up, down):  3.451E-02 0.000E+00

     total cpu time spent up to now is       20.4 secs

     total energy              =     -34.59186338 Ry
     estimated scf accuracy    <       0.00000119 Ry

     iteration #  6     ecut=    25.00 Ry     beta= 0.70
     Davidson diagonalization with overlap
     ethr =  1.48E-08,  avg # of iterations =  2.0

     negative rho (up, down):  3.451E-02 0.000E+00

     total cpu time spent up to now is       20.8 secs

     total energy              =     -34.59186353 Ry
     estimated scf accuracy    <       0.00000002 Ry

     iteration #  7     ecut=    25.00 Ry     beta= 0.70
     Davidson diagonalization with overlap
     ethr =  2.99E-10,  avg # of iterations =  3.0

     negative rho (up, down):  3.451E-02 0.000E+00

     total cpu time spent up to now is       21.2 secs

     total energy              =     -34.59186354 Ry
     estimated scf accuracy    <       0.00000002 Ry

     iteration #  8     ecut=    25.00 Ry     beta= 0.70
     Davidson diagonalization with overlap
     ethr =  1.94E-10,  avg # of iterations =  2.0

     negative rho (up, down):  3.451E-02 0.000E+00

     total cpu time spent up to now is       21.6 secs

     End of self-consistent calculation

          k = 0.0000 0.0000 0.0000 (  7123 PWs)   bands (ev):

   -24.5175 -11.7890  -9.4170  -6.8891

     highest occupied level (ev):    -6.8891

!    total energy              =     -34.59186354 Ry
     estimated scf accuracy    <          2.7E-10 Ry

     The total energy is the sum of the following terms:
     one-electron contribution =     -56.72992426 Ry
     hartree contribution      =      29.90504093 Ry
     xc contribution           =      -8.54955266 Ry
     ewald contribution        =       0.78257246 Ry

     convergence has been achieved in   8 iterations

     negative rho (up, down):  3.451E-02 0.000E+00

     Forces acting on atoms (cartesian axes, Ry/au):

     atom    1 type  2   force =     0.12246393    0.03891513    0.09950121
     atom    2 type  1   force =     0.00184566   -0.00994680   -0.02529314
     atom    3 type  1   force =    -0.12430959   -0.02896834   -0.07420807

     Total force =     0.221254     Total SCF correction =     0.000023
     Energy error            =      1.6E-02
     Gradient error          =      1.2E-01

     number of scf cycles    =  16
     number of bfgs steps    =  14

     energy   old            =     -34.5759492279 Ry
     energy   new            =     -34.5918635428 Ry

     CASE: energy  _new < energy  _old

     new trust radius        =       0.1614474290 bohr
     new conv_thr            =       0.0000000100 Ry


ATOMIC_POSITIONS (angstrom)
O            -0.1341746454       -0.1452924435       -0.3696247396
H            -0.6394191024        0.1594425740        0.3989104507
H             0.7735937477        0.0058498696        0.0207142890



     Writing output data file ./h2o.save/
     NEW-OLD atomic charge density approx. for the potential

     Check: negative core charge=   -0.000020

     negative rho (up, down):  3.595E-02 0.000E+00

     total cpu time spent up to now is       22.2 secs

     Self-consistent Calculation

     iteration #  1     ecut=    25.00 Ry     beta= 0.70
     Davidson diagonalization with overlap
     ethr =  1.00E-06,  avg # of iterations =  6.0

     negative rho (up, down):  3.455E-02 0.000E+00

     total cpu time spent up to now is       22.6 secs

     total energy              =     -34.60756621 Ry
     estimated scf accuracy    <       0.00751588 Ry

     iteration #  2     ecut=    25.00 Ry     beta= 0.70
     Davidson diagonalization with overlap
     ethr =  9.39E-05,  avg # of iterations =  2.0

     negative rho (up, down):  3.388E-02 0.000E+00

     total cpu time spent up to now is       23.1 secs

     total energy              =     -34.60943669 Ry
     estimated scf accuracy    <       0.00559408 Ry

     iteration #  3     ecut=    25.00 Ry     beta= 0.70
     Davidson diagonalization with overlap
     ethr =  6.99E-05,  avg # of iterations =  2.0

     negative rho (up, down):  3.363E-02 0.000E+00

     total cpu time spent up to now is       23.5 secs

     total energy              =     -34.61043613 Ry
     estimated scf accuracy    <       0.00003047 Ry

     iteration #  4     ecut=    25.00 Ry     beta= 0.70
     Davidson diagonalization with overlap
     ethr =  3.81E-07,  avg # of iterations =  2.0

     negative rho (up, down):  3.363E-02 0.000E+00

     total cpu time spent up to now is       23.9 secs

     total energy              =     -34.61044285 Ry
     estimated scf accuracy    <       0.00001426 Ry

     iteration #  5     ecut=    25.00 Ry     beta= 0.70
     Davidson diagonalization with overlap
     ethr =  1.78E-07,  avg # of iterations =  2.0

     negative rho (up, down):  3.363E-02 0.000E+00

     total cpu time spent up to now is       24.3 secs

     total energy              =     -34.61044541 Ry
     estimated scf accuracy    <       0.00000008 Ry

     iteration #  6     ecut=    25.00 Ry     beta= 0.70
     Davidson diagonalization with overlap
     ethr =  9.73E-10,  avg # of iterations =  2.0

     negative rho (up, down):  3.363E-02 0.000E+00

     total cpu time spent up to now is       24.6 secs

     End of self-consistent calculation

          k = 0.0000 0.0000 0.0000 (  7123 PWs)   bands (ev):

   -25.1297 -12.3445  -9.4752  -7.0091

     highest occupied level (ev):    -7.0091

!    total energy              =     -34.61044542 Ry
     estimated scf accuracy    <          5.7E-09 Ry

     The total energy is the sum of the following terms:
     one-electron contribution =     -58.09308184 Ry
     hartree contribution      =      30.55643474 Ry
     xc contribution           =      -8.65541928 Ry
     ewald contribution        =       1.58162096 Ry

     convergence has been achieved in   6 iterations

     negative rho (up, down):  3.363E-02 0.000E+00

     Forces acting on atoms (cartesian axes, Ry/au):

     atom    1 type  2   force =     0.05074554    0.00561534    0.01467227
     atom    2 type  1   force =    -0.03239513    0.00539104    0.01338102
     atom    3 type  1   force =    -0.01835041   -0.01100638   -0.02805330

     Total force =     0.072968     Total SCF correction =     0.000065
     Energy error            =      1.9E-02
     Gradient error          =      5.1E-02

     number of scf cycles    =  17
     number of bfgs steps    =  15

     energy   old            =     -34.5918635428 Ry
     energy   new            =     -34.6104454241 Ry

     CASE: energy  _new < energy  _old

     new trust radius        =       0.0432585775 bohr
     new conv_thr            =       0.0000000100 Ry


ATOMIC_POSITIONS (angstrom)
O            -0.1241163415       -0.1377373745       -0.3504996228
H            -0.6551904047        0.1593083386        0.3985478033
H             0.7793067462       -0.0015709640        0.0019518195



     Writing output data file ./h2o.save/
     NEW-OLD atomic charge density approx. for the potential

     Check: negative core charge=   -0.000020

     negative rho (up, down):  3.369E-02 0.000E+00

     total cpu time spent up to now is       25.2 secs

     Self-consistent Calculation

     iteration #  1     ecut=    25.00 Ry     beta= 0.70
     Davidson diagonalization with overlap
     ethr =  1.00E-06,  avg # of iterations =  4.0

     negative rho (up, down):  3.361E-02 0.000E+00

     total cpu time spent up to now is       25.6 secs

     total energy              =     -34.61239209 Ry
     estimated scf accuracy    <       0.00060801 Ry

     iteration #  2     ecut=    25.00 Ry     beta= 0.70
     Davidson diagonalization with overlap
     ethr =  7.60E-06,  avg # of iterations =  2.0

     negative rho (up, down):  3.348E-02 0.000E+00

     total cpu time spent up to now is       26.1 secs

     total energy              =     -34.61252724 Ry
     estimated scf accuracy    <       0.00040572 Ry

     iteration #  3     ecut=    25.00 Ry     beta= 0.70
     Davidson diagonalization with overlap
     ethr =  5.07E-06,  avg # of iterations =  2.0

     negative rho (up, down):  3.349E-02 0.000E+00

     total cpu time spent up to now is       26.5 secs

     total energy              =     -34.61260383 Ry
     estimated scf accuracy    <       0.00000431 Ry

     iteration #  4     ecut=    25.00 Ry     beta= 0.70
     Davidson diagonalization with overlap
     ethr =  5.38E-08,  avg # of iterations =  2.0

     negative rho (up, down):  3.350E-02 0.000E+00

     total cpu time spent up to now is       26.9 secs

     total energy              =     -34.61260389 Ry
     estimated scf accuracy    <       0.00000094 Ry

     iteration #  5     ecut=    25.00 Ry     beta= 0.70
     Davidson diagonalization with overlap
     ethr =  1.17E-08,  avg # of iterations =  2.0

     negative rho (up, down):  3.350E-02 0.000E+00

     total cpu time spent up to now is       27.3 secs

     End of self-consistent calculation

          k = 0.0000 0.0000 0.0000 (  7123 PWs)   bands (ev):

   -25.1859 -12.6562  -9.2879  -7.0157

     highest occupied level (ev):    -7.0157

!    total energy              =     -34.61260406 Ry
     estimated scf accuracy    <          7.2E-09 Ry

     The total energy is the sum of the following terms:
     one-electron contribution =     -58.34480001 Ry
     hartree contribution      =      30.68249914 Ry
     xc contribution           =      -8.67670946 Ry
[...]

     negative rho (up, down):  3.360E-02 0.000E+00

     total cpu time spent up to now is       95.8 secs

     total energy              =     -34.61342045 Ry
     estimated scf accuracy    <       0.00000176 Ry

     iteration #  2     ecut=    25.00 Ry     beta= 0.70
     Davidson diagonalization with overlap
     ethr =  2.21E-08,  avg # of iterations =  2.0

     negative rho (up, down):  3.360E-02 0.000E+00

     total cpu time spent up to now is       96.2 secs

     total energy              =     -34.61342076 Ry
     estimated scf accuracy    <       0.00000011 Ry

     iteration #  3     ecut=    25.00 Ry     beta= 0.70
     Davidson diagonalization with overlap
     ethr =  1.43E-09,  avg # of iterations =  2.0

     negative rho (up, down):  3.360E-02 0.000E+00

     total cpu time spent up to now is       96.7 secs

     total energy              =     -34.61342080 Ry
     estimated scf accuracy    <       0.00000003 Ry

     iteration #  4     ecut=    25.00 Ry     beta= 0.70
     Davidson diagonalization with overlap
     ethr =  3.59E-10,  avg # of iterations =  2.0

     negative rho (up, down):  3.360E-02 0.000E+00

     total cpu time spent up to now is       97.1 secs

     total energy              =     -34.61342082 Ry
     estimated scf accuracy    <          3.6E-09 Ry

     iteration #  5     ecut=    25.00 Ry     beta= 0.70
     Davidson diagonalization with overlap
     ethr =  4.55E-11,  avg # of iterations =  2.0

     negative rho (up, down):  3.360E-02 0.000E+00

     total cpu time spent up to now is       97.5 secs

     End of self-consistent calculation

          k = 0.0000 0.0000 0.0000 (  7123 PWs)   bands (ev):

   -25.0538 -12.7180  -9.1445  -6.9872

     highest occupied level (ev):    -6.9872

!    total energy              =     -34.61342082 Ry
     estimated scf accuracy    <          3.4E-11 Ry

     The total energy is the sum of the following terms:
     one-electron contribution =     -58.15921506 Ry
     hartree contribution      =      30.59841808 Ry
     xc contribution           =      -8.66261918 Ry
     ewald contribution        =       1.60999535 Ry

     convergence has been achieved in   5 iterations

     negative rho (up, down):  3.360E-02 0.000E+00

     Forces acting on atoms (cartesian axes, Ry/au):

     atom    1 type  2   force =     0.00002671    0.00003489    0.00018243
     atom    2 type  1   force =     0.00010945   -0.00005941   -0.00015561
     atom    3 type  1   force =    -0.00013616    0.00002452   -0.00002682

     Total force =     0.000308     Total SCF correction =     0.000012
     Energy error            =      6.0E-08
     Gradient error          =      1.8E-04

     number of scf cycles    =  41
     number of bfgs steps    =  38

     energy   old            =     -34.6134208807 Ry
     energy   new            =     -34.6134208207 Ry

     CASE: energy  _new > energy  _old

     new trust radius        =       0.0005524139 bohr
     new conv_thr            =            1.0E-10 Ry


ATOMIC_POSITIONS (angstrom)
O            -0.1379421505       -0.1291133870       -0.3393169888
H            -0.6534002947        0.1687684234        0.4386462894
H             0.7913424452       -0.0196550364       -0.0493293005



     Writing output data file ./h2o.save/
     NEW-OLD atomic charge density approx. for the potential

     Check: negative core charge=   -0.000020

     negative rho (up, down):  3.360E-02 0.000E+00

     total cpu time spent up to now is      140.6 secs

     Self-consistent Calculation

     iteration #  1     ecut=    25.00 Ry     beta= 0.70
     Davidson diagonalization with overlap
     ethr =  1.00E-06,  avg # of iterations =  2.0

     Threshold (ethr) on eigenvalues was too large:
     Diagonalizing with lowered threshold

     Davidson diagonalization with overlap
     ethr =  8.77E-10,  avg # of iterations =  3.0

     negative rho (up, down):  3.360E-02 0.000E+00

     total cpu time spent up to now is      141.4 secs

     total energy              =     -34.61342082 Ry
     estimated scf accuracy    <       0.00000012 Ry

     iteration #  2     ecut=    25.00 Ry     beta= 0.70
     Davidson diagonalization with overlap
     ethr =  1.45E-09,  avg # of iterations =  2.0

     negative rho (up, down):  3.360E-02 0.000E+00

     total cpu time spent up to now is      141.9 secs

     total energy              =     -34.61342085 Ry
     estimated scf accuracy    <          9.2E-09 Ry

     iteration #  3     ecut=    25.00 Ry     beta= 0.70
     Davidson diagonalization with overlap
     ethr =  1.15E-10,  avg # of iterations =  2.0

     negative rho (up, down):  3.360E-02 0.000E+00

     total cpu time spent up to now is      142.4 secs

     total energy              =     -34.61342086 Ry
     estimated scf accuracy    <          3.1E-09 Ry

     iteration #  4     ecut=    25.00 Ry     beta= 0.70
     Davidson diagonalization with overlap
     ethr =  3.93E-11,  avg # of iterations =  2.0

     negative rho (up, down):  3.360E-02 0.000E+00

     total cpu time spent up to now is      142.9 secs

     total energy              =     -34.61342087 Ry
     estimated scf accuracy    <          2.0E-10 Ry

     iteration #  5     ecut=    25.00 Ry     beta= 0.70
     Davidson diagonalization with overlap
     ethr =  2.54E-12,  avg # of iterations =  2.0

     negative rho (up, down):  3.360E-02 0.000E+00

     total cpu time spent up to now is      143.6 secs

     End of self-consistent calculation

          k = 0.0000 0.0000 0.0000 (  7123 PWs)   bands (ev):

   -25.0533 -12.7176  -9.1444  -6.9871

     highest occupied level (ev):    -6.9871

!    total energy              =     -34.61342087 Ry
     estimated scf accuracy    <          5.5E-12 Ry

     The total energy is the sum of the following terms:
     one-electron contribution =     -58.15826276 Ry
     hartree contribution      =      30.59796018 Ry
     xc contribution           =      -8.66254231 Ry
     ewald contribution        =       1.60942403 Ry

     convergence has been achieved in   5 iterations

     negative rho (up, down):  3.360E-02 0.000E+00

     Forces acting on atoms (cartesian axes, Ry/au):

     atom    1 type  2   force =     0.00006519    0.00006356    0.00026083
     atom    2 type  1   force =     0.00015174   -0.00008225   -0.00021574
     atom    3 type  1   force =    -0.00021693    0.00001869   -0.00004509

     Total force =     0.000450     Total SCF correction =     0.000004
     Energy error            =      1.4E-08
     Gradient error          =      2.6E-04

     number of scf cycles    =  42
     number of bfgs steps    =  38

     energy   old            =     -34.6134208807 Ry
     energy   new            =     -34.6134208664 Ry

     CASE: energy  _new > energy  _old

     new trust radius        =       0.0002098494 bohr
     new conv_thr            =            1.0E-10 Ry


ATOMIC_POSITIONS (angstrom)
O            -0.1380302288       -0.1290862775       -0.3392992936
H            -0.6533074335        0.1687998859        0.4387987636
H             0.7913376623       -0.0197136084       -0.0494994700



     Writing output data file ./h2o.save/
     NEW-OLD atomic charge density approx. for the potential

     Check: negative core charge=   -0.000020

     negative rho (up, down):  3.360E-02 0.000E+00

     total cpu time spent up to now is      144.3 secs

     Self-consistent Calculation

     iteration #  1     ecut=    25.00 Ry     beta= 0.70
     Davidson diagonalization with overlap
     ethr =  1.00E-06,  avg # of iterations =  2.0

     Threshold (ethr) on eigenvalues was too large:
     Diagonalizing with lowered threshold

     Davidson diagonalization with overlap
     ethr =  9.14E-11,  avg # of iterations =  3.0

     negative rho (up, down):  3.360E-02 0.000E+00

     total cpu time spent up to now is      145.0 secs

     total energy              =     -34.61342086 Ry
     estimated scf accuracy    <       0.00000001 Ry

     iteration #  2     ecut=    25.00 Ry     beta= 0.70
     Davidson diagonalization with overlap
     ethr =  1.49E-10,  avg # of iterations =  2.0

     negative rho (up, down):  3.360E-02 0.000E+00

     total cpu time spent up to now is      145.4 secs

     total energy              =     -34.61342087 Ry
     estimated scf accuracy    <          9.5E-10 Ry

     iteration #  3     ecut=    25.00 Ry     beta= 0.70
     Davidson diagonalization with overlap
     ethr =  1.19E-11,  avg # of iterations =  2.0

     negative rho (up, down):  3.360E-02 0.000E+00

     total cpu time spent up to now is      145.8 secs

     total energy              =     -34.61342087 Ry
     estimated scf accuracy    <          3.6E-10 Ry

     iteration #  4     ecut=    25.00 Ry     beta= 0.70
     Davidson diagonalization with overlap
     ethr =  4.45E-12,  avg # of iterations =  2.0

     negative rho (up, down):  3.360E-02 0.000E+00

     total cpu time spent up to now is      146.4 secs

     End of self-consistent calculation

          k = 0.0000 0.0000 0.0000 (  7123 PWs)   bands (ev):

   -25.0532 -12.7175  -9.1444  -6.9871

     highest occupied level (ev):    -6.9871

!    total energy              =     -34.61342088 Ry
     estimated scf accuracy    <          1.6E-11 Ry

     The total energy is the sum of the following terms:
     one-electron contribution =     -58.15795786 Ry
     hartree contribution      =      30.59781840 Ry
     xc contribution           =      -8.66251875 Ry
     ewald contribution        =       1.60923734 Ry

     convergence has been achieved in   4 iterations

     negative rho (up, down):  3.360E-02 0.000E+00

     Forces acting on atoms (cartesian axes, Ry/au):

     atom    1 type  2   force =     0.00007796    0.00007279    0.00028581
     atom    2 type  1   force =     0.00016523   -0.00008956   -0.00023494
     atom    3 type  1   force =    -0.00024319    0.00001677   -0.00005088

     Total force =     0.000496     Total SCF correction =     0.000002
     Energy error            =      5.3E-09
     Gradient error          =      2.9E-04

     number of scf cycles    =  43
     number of bfgs steps    =  38

     energy   old            =     -34.6134208807 Ry
     energy   new            =     -34.6134208754 Ry

     CASE: energy  _new > energy  _old

     new trust radius        =       0.0000802878 bohr

     trust_radius < trust_radius_min

     resetting bfgs history

     new conv_thr            =            1.0E-10 Ry


ATOMIC_POSITIONS (angstrom)
O            -0.1380392773       -0.1290280186       -0.3391287771
H            -0.6531585798        0.1687692668        0.4387615057
H             0.7911978572       -0.0197412482       -0.0496327286



     Writing output data file ./h2o.save/
     NEW-OLD atomic charge density approx. for the potential

     Check: negative core charge=   -0.000020

     negative rho (up, down):  3.360E-02 0.000E+00

     total cpu time spent up to now is      147.1 secs

     Self-consistent Calculation

     iteration #  1     ecut=    25.00 Ry     beta= 0.70
     Davidson diagonalization with overlap
     ethr =  1.00E-06,  avg # of iterations =  2.0

     Threshold (ethr) on eigenvalues was too large:
     Diagonalizing with lowered threshold

     Davidson diagonalization with overlap
     ethr =  1.62E-09,  avg # of iterations =  1.0

     negative rho (up, down):  3.360E-02 0.000E+00

     total cpu time spent up to now is      147.8 secs

     total energy              =     -34.61342086 Ry
     estimated scf accuracy    <       0.00000014 Ry

     iteration #  2     ecut=    25.00 Ry     beta= 0.70
     Davidson diagonalization with overlap
     ethr =  1.75E-09,  avg # of iterations =  2.0

     negative rho (up, down):  3.359E-02 0.000E+00

     total cpu time spent up to now is      148.2 secs

     total energy              =     -34.61342090 Ry
     estimated scf accuracy    <       0.00000010 Ry

     iteration #  3     ecut=    25.00 Ry     beta= 0.70
     Davidson diagonalization with overlap
     ethr =  1.31E-09,  avg # of iterations =  2.0

     negative rho (up, down):  3.359E-02 0.000E+00

     total cpu time spent up to now is      148.8 secs

     total energy              =     -34.61342093 Ry
     estimated scf accuracy    <          3.7E-10 Ry

     iteration #  4     ecut=    25.00 Ry     beta= 0.70
     Davidson diagonalization with overlap
     ethr =  4.64E-12,  avg # of iterations =  3.0

     negative rho (up, down):  3.359E-02 0.000E+00

     total cpu time spent up to now is      149.3 secs

     total energy              =     -34.61342093 Ry
     estimated scf accuracy    <          2.6E-10 Ry

     iteration #  5     ecut=    25.00 Ry     beta= 0.70
     Davidson diagonalization with overlap
     ethr =  3.27E-12,  avg # of iterations =  2.0

     negative rho (up, down):  3.359E-02 0.000E+00

     total cpu time spent up to now is      149.6 secs

     End of self-consistent calculation

          k = 0.0000 0.0000 0.0000 (  7123 PWs)   bands (ev):

   -25.0557 -12.7204  -9.1441  -6.9876

     highest occupied level (ev):    -6.9876

!    total energy              =     -34.61342093 Ry
     estimated scf accuracy    <          2.8E-12 Ry

     The total energy is the sum of the following terms:
     one-electron contribution =     -58.16356074 Ry
     hartree contribution      =      30.60048980 Ry
     xc contribution           =      -8.66296609 Ry
     ewald contribution        =       1.61261610 Ry

     convergence has been achieved in   5 iterations

     negative rho (up, down):  3.359E-02 0.000E+00

     Forces acting on atoms (cartesian axes, Ry/au):

     atom    1 type  2   force =    -0.00005049   -0.00013805   -0.00026634
     atom    2 type  1   force =    -0.00009987    0.00007062    0.00018345
     atom    3 type  1   force =     0.00015036    0.00006743    0.00008289

     Total force =     0.000419     Total SCF correction =     0.000003
     Energy error            =      4.8E-08
     Gradient error          =      2.7E-04

     number of scf cycles    =  44
     number of bfgs steps    =  38

     energy   old            =     -34.6134208807 Ry
     energy   new            =     -34.6134209288 Ry

     CASE: energy  _new < energy  _old

     new trust radius        =       0.0001664009 bohr
     new conv_thr            =            1.0E-10 Ry


ATOMIC_POSITIONS (angstrom)
O            -0.1380535040       -0.1290687297       -0.3392055494
H            -0.6531866523        0.1687894559        0.4388139236
H             0.7912401562       -0.0197207261       -0.0496083741



     Writing output data file ./h2o.save/
     NEW-OLD atomic charge density approx. for the potential

     Check: negative core charge=   -0.000020

     negative rho (up, down):  3.359E-02 0.000E+00

     total cpu time spent up to now is      150.2 secs

     Self-consistent Calculation

     iteration #  1     ecut=    25.00 Ry     beta= 0.70
     Davidson diagonalization with overlap
     ethr =  1.00E-06,  avg # of iterations =  2.0

     Threshold (ethr) on eigenvalues was too large:
     Diagonalizing with lowered threshold

     Davidson diagonalization with overlap
     ethr =  3.37E-10,  avg # of iterations =  1.0

     negative rho (up, down):  3.359E-02 0.000E+00

     total cpu time spent up to now is      150.9 secs

     total energy              =     -34.61342096 Ry
     estimated scf accuracy    <       0.00000003 Ry

     iteration #  2     ecut=    25.00 Ry     beta= 0.70
     Davidson diagonalization with overlap
     ethr =  3.53E-10,  avg # of iterations =  2.0

     negative rho (up, down):  3.359E-02 0.000E+00

     total cpu time spent up to now is      151.3 secs

     total energy              =     -34.61342097 Ry
     estimated scf accuracy    <       0.00000002 Ry

     iteration #  3     ecut=    25.00 Ry     beta= 0.70
     Davidson diagonalization with overlap
     ethr =  2.76E-10,  avg # of iterations =  2.0

     negative rho (up, down):  3.359E-02 0.000E+00

     total cpu time spent up to now is      151.6 secs

     End of self-consistent calculation

          k = 0.0000 0.0000 0.0000 (  7123 PWs)   bands (ev):

   -25.0546 -12.7190  -9.1443  -6.9874

     highest occupied level (ev):    -6.9874

!    total energy              =     -34.61342097 Ry
     estimated scf accuracy    <          7.9E-11 Ry

     The total energy is the sum of the following terms:
     one-electron contribution =     -58.16114286 Ry
     hartree contribution      =      30.59935046 Ry
     xc contribution           =      -8.66277522 Ry
     ewald contribution        =       1.61114665 Ry

     convergence has been achieved in   3 iterations

     negative rho (up, down):  3.359E-02 0.000E+00

     Forces acting on atoms (cartesian axes, Ry/au):

     atom    1 type  2   force =    -0.00001417   -0.00004045   -0.00000983
     atom    2 type  1   force =     0.00001700   -0.00000456   -0.00001332
     atom    3 type  1   force =    -0.00000283    0.00004500    0.00002315

     Total force =     0.000071     Total SCF correction =     0.000006
     Energy error            =      4.3E-08
     Gradient error          =      4.5E-05

     bfgs converged in  45 scf cycles and  39 bfgs steps
     (criteria: energy <  1.0E-05 Ry, force <  1.0E-04 Ry/Bohr)

     End of BFGS Geometry Optimization

     Final energy   =     -34.6134209718 Ry

     File ./h2o.bfgs deleted, as requested
Begin final coordinates

ATOMIC_POSITIONS (angstrom)
O            -0.1380535040       -0.1290687297       -0.3392055494
H            -0.6531866523        0.1687894559        0.4388139236
H             0.7912401562       -0.0197207261       -0.0496083741
End final coordinates



     Writing output data file ./h2o.save/

     init_run     :      0.34s CPU      0.52s WALL (       1 calls)
     electrons    :     76.23s CPU     41.81s WALL (      45 calls)
     update_pot   :      4.11s CPU      5.92s WALL (      44 calls)
     forces       :     10.26s CPU     55.09s WALL (      45 calls)

     Called by init_run:
     wfcinit      :      0.02s CPU      0.09s WALL (       1 calls)
     potinit      :      0.09s CPU      0.11s WALL (       1 calls)
     hinit0       :      0.11s CPU      0.17s WALL (       1 calls)

     Called by electrons:
     c_bands      :      7.72s CPU     -4.37s WALL (     267 calls)
     sum_band     :     30.03s CPU     40.42s WALL (     267 calls)
     v_of_rho     :     19.57s CPU     25.96s WALL (     289 calls)
     newd         :     24.18s CPU     32.07s WALL (     289 calls)
     mix_rho      :      1.63s CPU      2.33s WALL (     267 calls)

     Called by c_bands:
     init_us_2    :      0.89s CPU      1.65s WALL (     535 calls)
     cegterg      :      6.98s CPU     12.07s WALL (     267 calls)

     Called by *egterg:
     cdiaghg      :      0.05s CPU      0.09s WALL (     819 calls)
     h_psi        :      5.73s CPU     10.05s WALL (     887 calls)
     s_psi        :      0.29s CPU      0.48s WALL (     887 calls)
     g_psi        :      0.04s CPU      0.07s WALL (     619 calls)

     Called by h_psi:
     h_psi:calbec :      0.41s CPU      0.69s WALL (     887 calls)
     vloc_psi     :      4.96s CPU      8.75s WALL (     887 calls)
     add_vuspsi   :      0.32s CPU      0.52s WALL (     887 calls)

     General routines
     calbec       :      0.61s CPU      1.05s WALL (    1334 calls)
     fft          :      7.56s CPU     10.11s WALL (    3741 calls)
     ffts         :      0.50s CPU      0.71s WALL (     267 calls)
     fftw         :      5.07s CPU      8.69s WALL (    7436 calls)

     Parallel routines

     PWSCF        :   1m35.60s CPU   2m31.98s WALL


   This run was terminated on:   2:33:42  10Mar2023            

=------------------------------------------------------------------------------=
   JOB DONE.
=------------------------------------------------------------------------------=
