
     Program PWSCF v.6.7MaX starts on 23Apr2023 at 17: 6:20 

     This program is part of the open-source Quantum ESPRESSO suite
     for quantum simulation of materials; please cite
         "P. Giannozzi et al., J. Phys.:Condens. Matter 21 395502 (2009);
         "P. Giannozzi et al., J. Phys.:Condens. Matter 29 465901 (2017);
          URL http://www.quantum-espresso.org", 
     in publications or presentations arising from this work. More details at
     http://www.quantum-espresso.org/quote

     Parallel version (MPI), running on     1 processors

     MPI processes distributed on     1 nodes
     Reading input from espresso.pwi
Warning: card &CELL ignored
Warning: card / ignored

     Current dimensions of program PWSCF are:
     Max number of different atomic species (ntypx) = 10
     Max number of k-points (npk) =  40000
     Max angular momentum in pseudopotentials (lmaxx) =  3

     IMPORTANT: XC functional enforced from input :
     Exchange-correlation= PBE
                           (   1   4   3   4   0   0   0)
     Any further DFT definition will be discarded
     Please, verify this is what you really want


     --------------------------------------------
     Parameters for DFT-D3 Dispersion Correction:
     --------------------------------------------
       Reference C6 values for interpolation: 

         atom   Coordination number   C6
         C          0.000            98.23
         C          0.987            86.49
         C          1.998            58.72
         C          2.999            51.56
         C          3.984            36.41

       Values used:

         atom   Coordination number  R0_AB[au]  C6      C8
         C          3.316            2.750     48.25   1395.40
         C          3.316            2.750     48.25   1395.40
         C          3.316            2.750     48.25   1395.40
         C          3.316            2.750     48.25   1395.40
         C          3.316            2.750     48.25   1395.40
         C          3.316            2.750     48.25   1395.40
         C          3.316            2.750     48.25   1395.40
         C          3.316            2.750     48.25   1395.40
         C          3.316            2.750     48.25   1395.40
         C          3.316            2.750     48.25   1395.40
         C          3.316            2.750     48.25   1395.40
         C          3.316            2.750     48.25   1395.40
         C          3.316            2.750     48.25   1395.40
         C          3.316            2.750     48.25   1395.40
         C          3.316            2.750     48.25   1395.40
         C          3.316            2.750     48.25   1395.40
         C          3.316            2.750     48.25   1395.40
         C          3.316            2.750     48.25   1395.40
         C          3.316            2.750     48.25   1395.40
         C          3.316            2.750     48.25   1395.40
         C          3.316            2.750     48.25   1395.40
         C          3.316            2.750     48.25   1395.40
         C          3.316            2.750     48.25   1395.40
         C          3.316            2.750     48.25   1395.40
         C          3.316            2.750     48.25   1395.40
         C          3.316            2.750     48.25   1395.40
         C          3.316            2.750     48.25   1395.40
         C          3.316            2.750     48.25   1395.40
         C          3.316            2.750     48.25   1395.40
         C          3.316            2.750     48.25   1395.40
         C          3.316            2.750     48.25   1395.40
         C          3.316            2.750     48.25   1395.40

         Molecular C6 ( Ry / a.u.^6 ) =     49405.56


     Subspace diagonalization in iterative solution of the eigenvalue problem:
     a serial algorithm will be used

     Found symmetry operation: I + ( -0.0000  0.2500  0.0000)
     This is a supercell, fractional translations are disabled
     Message from routine setup:
     using ibrav=0 with symmetry is DISCOURAGED, use correct ibrav instead

     G-vector sticks info
     --------------------
     sticks:   dense  smooth     PW     G-vecs:    dense   smooth      PW
     Sum        9541    3817   1027               764221   193289   26841



     bravais-lattice index     =            0
     lattice parameter (alat)  =      18.5949  a.u.
     unit-cell volume          =    5658.7099 (a.u.)^3
     number of atoms/cell      =           32
     number of atomic types    =            1
     number of electrons       =       128.00
     number of Kohn-Sham states=           77
     kinetic-energy cutoff     =      40.0000  Ry
     charge density cutoff     =     400.0000  Ry
     scf convergence threshold =      1.0E-06
     mixing beta               =       0.7000
     number of iterations used =            8  plain     mixing
     Exchange-correlation= PBE
                           (   1   4   3   4   0   0   0)

     celldm(1)=  18.594905  celldm(2)=   0.000000  celldm(3)=   0.000000
     celldm(4)=   0.000000  celldm(5)=   0.000000  celldm(6)=   0.000000

     crystal axes: (cart. coord. in units of alat)
               a(1) = (   1.000000   0.000000   0.000000 )  
               a(2) = (  -0.500000   0.866025   0.000000 )  
               a(3) = (   0.000000   0.000000   1.016260 )  

     reciprocal axes: (cart. coord. in units 2 pi/alat)
               b(1) = (  1.000000  0.577350 -0.000000 )  
               b(2) = (  0.000000  1.154701  0.000000 )  
               b(3) = (  0.000000 -0.000000  0.984000 )  


     PseudoPot. # 1 for C  read from file:
     /home/max/Documents/TestQE/all_pbe_UPF_v1.5/c_pbe_v1.2.uspp.F.UPF
     MD5 check sum: d1aef80898a10debaa0f26306b886e00
     Pseudo is Ultrasoft + core correction, Zval =  4.0
     Generated by new atomic code, or converted to UPF format
     Using radial grid of  721 points,  4 beta functions with: 
                l(1) =   0
                l(2) =   0
                l(3) =   1
                l(4) =   1
     Q(r) pseudized with  8 coefficients,  rinner =    1.100   1.100   1.100


     atomic species   valence    mass     pseudopotential
        C              4.00    12.01100     C ( 1.00)

     12 Sym. Ops. (no inversion) found



   Cartesian axes

     site n.     atom                  positions (alat units)
         1           C   tau(   1) = (   0.0000000   0.0000000   0.0000000  )
         2           C   tau(   2) = (   0.0000000   0.1443376   0.0000000  )
         3           C   tau(   3) = (  -0.1250000   0.2165064   0.0000000  )
         4           C   tau(   4) = (  -0.1250000   0.3608439   0.0000000  )
         5           C   tau(   5) = (  -0.2500000   0.4330127   0.0000000  )
         6           C   tau(   6) = (  -0.2500000   0.5773503   0.0000000  )
         7           C   tau(   7) = (  -0.3750000   0.6495191   0.0000000  )
         8           C   tau(   8) = (  -0.3750000   0.7938566   0.0000000  )
         9           C   tau(   9) = (   0.2500000   0.0000000   0.0000000  )
        10           C   tau(  10) = (   0.2500000   0.1443376   0.0000000  )
        11           C   tau(  11) = (   0.1250000   0.2165064   0.0000000  )
        12           C   tau(  12) = (   0.1250000   0.3608439   0.0000000  )
        13           C   tau(  13) = (   0.0000000   0.4330127   0.0000000  )
        14           C   tau(  14) = (   0.0000000   0.5773503   0.0000000  )
        15           C   tau(  15) = (  -0.1250000   0.6495191   0.0000000  )
        16           C   tau(  16) = (  -0.1250000   0.7938566   0.0000000  )
        17           C   tau(  17) = (   0.5000000   0.0000000   0.0000000  )
        18           C   tau(  18) = (   0.5000000   0.1443376   0.0000000  )
        19           C   tau(  19) = (   0.3750000   0.2165064   0.0000000  )
        20           C   tau(  20) = (   0.3750000   0.3608439   0.0000000  )
        21           C   tau(  21) = (   0.2500000   0.4330127   0.0000000  )
        22           C   tau(  22) = (   0.2500000   0.5773503   0.0000000  )
        23           C   tau(  23) = (   0.1250000   0.6495191   0.0000000  )
        24           C   tau(  24) = (   0.1250000   0.7938566   0.0000000  )
        25           C   tau(  25) = (   0.7500000   0.0000000   0.0000000  )
        26           C   tau(  26) = (   0.7500000   0.1443376   0.0000000  )
        27           C   tau(  27) = (   0.6250000   0.2165064   0.0000000  )
        28           C   tau(  28) = (   0.6250000   0.3608439   0.0000000  )
        29           C   tau(  29) = (   0.5000000   0.4330127   0.0000000  )
        30           C   tau(  30) = (   0.5000000   0.5773503   0.0000000  )
        31           C   tau(  31) = (   0.3750000   0.6495191   0.0000000  )
        32           C   tau(  32) = (   0.3750000   0.7938566   0.0000000  )

     number of k points=    19  Gaussian smearing, width (Ry)=  0.0200
                       cart. coord. in units 2pi/alat
        k(    1) = (   0.0000000   0.0000000   0.0000000), wk =   0.0138889
        k(    2) = (   0.0000000   0.0962250   0.0000000), wk =   0.0833333
        k(    3) = (   0.0000000   0.1924501   0.0000000), wk =   0.0833333
        k(    4) = (   0.0000000   0.2886751   0.0000000), wk =   0.0833333
        k(    5) = (   0.0000000   0.3849002   0.0000000), wk =   0.0833333
        k(    6) = (   0.0000000   0.4811252   0.0000000), wk =   0.0833333
        k(    7) = (   0.0000000  -0.5773503   0.0000000), wk =   0.0416667
        k(    8) = (   0.0833333   0.1443376   0.0000000), wk =   0.0833333
        k(    9) = (   0.0833333   0.2405626   0.0000000), wk =   0.1666667
        k(   10) = (   0.0833333   0.3367877   0.0000000), wk =   0.1666667
        k(   11) = (   0.0833333   0.4330127   0.0000000), wk =   0.1666667
        k(   12) = (   0.0833333   0.5292377   0.0000000), wk =   0.1666667
        k(   13) = (   0.1666667   0.2886751   0.0000000), wk =   0.0833333
        k(   14) = (   0.1666667   0.3849002   0.0000000), wk =   0.1666667
        k(   15) = (   0.1666667   0.4811252   0.0000000), wk =   0.1666667
        k(   16) = (   0.1666667   0.5773503   0.0000000), wk =   0.0833333
        k(   17) = (   0.2500000   0.4330127   0.0000000), wk =   0.0833333
        k(   18) = (   0.2500000   0.5292377   0.0000000), wk =   0.1666667
        k(   19) = (   0.3333333   0.5773503   0.0000000), wk =   0.0277778

     Dense  grid:   764221 G-vectors     FFT dimensions: ( 120, 120, 125)

     Smooth grid:   193289 G-vectors     FFT dimensions: (  75,  75,  80)
